 Gaussian 09, Revision D.01,

 -------------------------------
 # b3lyp/6-311+g(d) test scf=xqc
 -------------------------------

 ------
 Al-a-t
 ------
 Symbolic Z-matrix:
 Charge = -1 Multiplicity = 3

 SCF Done:  E(UB3LYP) =  -242.400565250     A.U. after   10 cycles
 Normal termination of Gaussian 09 at Tue Oct  4 19:53:46 2016.
 Gaussian 09:  ES64L-G09RevD.01 24-Apr-2013

 --------------------------------------------------------
 # CCSD(T,conver=5)/cc-pVTZ test geom=allcheck guess=read
 --------------------------------------------------------

 Structure from the checkpoint file:  "cc-Al-a-t.chk"
 ------
 Al-a-t
 ------
 Charge = -1 Multiplicity = 3

                         Standard orientation:
 ---------------------------------------------------------------------
 Center     Atomic      Atomic             Coordinates (Angstroms)
 Number     Number       Type             X           Y           Z
 ---------------------------------------------------------------------
      1         13           0        0.000000    0.000000    0.000000
 ---------------------------------------------------------------------

 SCF Done:  E(UHF) =  -241.868761889     A.U. after   10 cycles
 E2 =    -0.4755146573D-01 EUMP2 =    -0.24191631335462D+03
 CCSD(T)= -0.24193480818D+03

 Unable to determine electronic state:  an orbital has unidentified symmetry.
 Alpha  occ. eigenvalues --  -58.25789  -4.66828  -2.98209  -2.98209  -2.97710
 Alpha  occ. eigenvalues --   -0.22458  -0.00523  -0.00523
 Alpha virt. eigenvalues --    0.21235   0.40514   0.43555   0.43555   0.45239
 Alpha virt. eigenvalues --    0.45239   0.45950   0.49843   0.49843   0.52530
 Alpha virt. eigenvalues --    1.11633   1.11753   1.11753   1.12079   1.12079

  Beta  occ. eigenvalues --  -58.25427  -4.66459  -2.97546  -2.96872  -2.96872
  Beta  occ. eigenvalues --   -0.12106
  Beta virt. eigenvalues --    0.22897   0.26467   0.26467   0.43490   0.49253
  Beta virt. eigenvalues --    0.49809   0.49809   0.52290   0.52290   0.52940
  Beta virt. eigenvalues --    0.56190   0.56190   1.12937   1.13624   1.13624

 Mulliken charges and spin densities:
               1          2
     1  Al  -1.000000   2.000000
 Sum of Mulliken charges =  -1.00000   2.00000

 Dipole moment (field-independent basis, Debye):
    X=              0.0000    Y=              0.0000    Z=              0.0000  Tot=              0.0000
 Quadrupole moment (field-independent basis, Debye-Ang):
   XX=            -18.4885   YY=            -27.4806   ZZ=            -27.4806
   XY=              0.0000   XZ=              0.0000   YZ=              0.0000

 1.9316249\CCSD=-241.9322989\CCSD(T)=-241.9348082\S2=2.020031\S2-1=2.00
 Normal termination of Gaussian 09 at Tue Oct  4 19:53:55 2016.
