 Gaussian 09, Revision D.01,

 -------------------------------
 # b3lyp/6-311+g(d) test scf=xqc
 -------------------------------

 ------
 Al-c-s
 ------
 Symbolic Z-matrix:
 Charge =  1 Multiplicity = 1

 SCF Done:  E(RB3LYP) =  -242.165422241     A.U. after    7 cycles
 Normal termination of Gaussian 09 at Tue Oct  4 19:53:46 2016.
 Gaussian 09:  ES64L-G09RevD.01 24-Apr-2013

 --------------------------------------------------------
 # CCSD(T,conver=5)/cc-pVTZ test geom=allcheck guess=read
 --------------------------------------------------------

 Structure from the checkpoint file:  "cc-Al-c-s.chk"
 ------
 Al-c-s
 ------
 Charge =  1 Multiplicity = 1

                         Standard orientation:
 ---------------------------------------------------------------------
 Center     Atomic      Atomic             Coordinates (Angstroms)
 Number     Number       Type             X           Y           Z
 ---------------------------------------------------------------------
      1         13           0        0.000000    0.000000    0.000000
 ---------------------------------------------------------------------

 SCF Done:  E(RHF) =  -241.673375993     A.U. after    7 cycles
 E2 =    -0.2773389309D-01 EUMP2 =    -0.24170110988632D+03
 CCSD(T)= -0.24171289974D+03

 The electronic state is 1-A1G.
 Alpha  occ. eigenvalues --  -58.81304  -5.21740  -3.52251  -3.52251  -3.52251
 Alpha  occ. eigenvalues --   -0.65222
 Alpha virt. eigenvalues --   -0.19460  -0.19460  -0.19460   0.01119   0.05341
 Alpha virt. eigenvalues --    0.05341   0.05341   0.05341   0.05341   0.09521
 Alpha virt. eigenvalues --    0.09521   0.09521   0.63157   0.63157   0.63157

 Mulliken charges:
               1
     1  Al   1.000000
 Sum of Mulliken charges =   1.00000

 Dipole moment (field-independent basis, Debye):
    X=              0.0000    Y=              0.0000    Z=              0.0000  Tot=              0.0000
 Quadrupole moment (field-independent basis, Debye-Ang):
   XX=             -7.7712   YY=             -7.7712   ZZ=             -7.7712
   XY=              0.0000   XZ=              0.0000   YZ=              0.0000

 1.7110661\MP4SDQ=-241.7111238\CCSD=-241.7128997\CCSD(T)=-241.7128997\R
 Normal termination of Gaussian 09 at Tue Oct  4 19:53:51 2016.
