 Gaussian 09, Revision D.01,

 -------------------------------
 # b3lyp/6-311+g(d) test scf=xqc
 -------------------------------

 ------
 Al-n-d
 ------
 Symbolic Z-matrix:
 Charge =  0 Multiplicity = 2

 SCF Done:  E(UB3LYP) =  -242.386397536     A.U. after    8 cycles
 Normal termination of Gaussian 09 at Tue Oct  4 19:53:47 2016.
 Gaussian 09:  ES64L-G09RevD.01 24-Apr-2013

 --------------------------------------------------------
 # CCSD(T,conver=5)/cc-pVTZ test geom=allcheck guess=read
 --------------------------------------------------------

 Structure from the checkpoint file:  "cc-Al-n-d.chk"
 ------
 Al-n-d
 ------
 Charge =  0 Multiplicity = 2

                         Standard orientation:
 ---------------------------------------------------------------------
 Center     Atomic      Atomic             Coordinates (Angstroms)
 Number     Number       Type             X           Y           Z
 ---------------------------------------------------------------------
      1         13           0        0.000000    0.000000    0.000000
 ---------------------------------------------------------------------

 SCF Done:  E(UHF) =  -241.879045626     A.U. after   10 cycles
 E2 =    -0.3585122385D-01 EUMP2 =    -0.24191489684952D+03
 CCSD(T)= -0.24193119845D+03

 Unable to determine electronic state:  an orbital has unidentified symmetry.
 Alpha  occ. eigenvalues --  -58.50059  -4.91043  -3.22474  -3.21746  -3.21746
 Alpha  occ. eigenvalues --   -0.42522  -0.21779
 Alpha virt. eigenvalues --    0.02460   0.02460   0.21735   0.25244   0.25594
 Alpha virt. eigenvalues --    0.25594   0.27146   0.27146   0.28984   0.31863
 Alpha virt. eigenvalues --    0.31863   0.89075   0.89075   0.89261   0.89261

  Beta  occ. eigenvalues --  -58.49768  -4.90702  -3.21600  -3.21600  -3.20665
  Beta  occ. eigenvalues --   -0.36310
  Beta virt. eigenvalues --    0.03231   0.03231   0.07041   0.23120   0.27357
  Beta virt. eigenvalues --    0.27357   0.29913   0.29913   0.31000   0.32204
  Beta virt. eigenvalues --    0.32204   0.35640   0.89094   0.89094   0.89903

 Mulliken charges and spin densities:
               1          2
     1  Al   0.000000   1.000000
 Sum of Mulliken charges =   0.00000   1.00000

 Dipole moment (field-independent basis, Debye):
    X=              0.0000    Y=              0.0000    Z=              0.0000  Tot=              0.0000
 Quadrupole moment (field-independent basis, Debye-Ang):
   XX=            -12.2844   YY=            -12.2844   ZZ=            -19.8148
   XY=              0.0000   XZ=              0.0000   YZ=              0.0000

 9283831\CCSD=-241.9300552\CCSD(T)=-241.9311985\S2=0.769626\S2-1=0.7558
 Normal termination of Gaussian 09 at Tue Oct  4 19:53:51 2016.
