 Gaussian 09, Revision D.01,

 ------------------------
 # hf/6-31G* test scf=xqc
 ------------------------

 --------
 Al10-n-s
 --------
 Symbolic Z-matrix:
 Charge =  0 Multiplicity = 1

 SCF Done:  E(RHF) =  -2418.95464083     A.U. after   22 cycles
 Normal termination of Gaussian 09 at Mon Oct  3 09:49:55 2016.
 Gaussian 09:  ES64L-G09RevD.01 24-Apr-2013

 --------------------------------------------------------
 # CCSD(T,conver=5)/cc-pVTZ test geom=allcheck guess=read
 --------------------------------------------------------

 Structure from the checkpoint file:  "cc-Al10-n-s.chk"
 --------
 Al10-n-s
 --------
 Charge =  0 Multiplicity = 1

                         Standard orientation:
 ---------------------------------------------------------------------
 Center     Atomic      Atomic             Coordinates (Angstroms)
 Number     Number       Type             X           Y           Z
 ---------------------------------------------------------------------
      1         13           0        2.075984   -2.104901   -0.000272
      2         13           0        1.712746    2.693139   -0.000206
      3         13           0        2.875247    0.335901   -0.000371
      4         13           0        0.671202   -0.048926   -1.445816
      5         13           0        0.671569   -0.048937    1.445640
      6         13           0       -1.789748   -0.572125   -1.507959
      7         13           0       -0.458894   -2.424454    0.000048
      8         13           0       -0.754460    1.834156    0.000112
      9         13           0       -1.789364   -0.572154    1.508406
     10         13           0       -3.214282    0.908302    0.000418
 ---------------------------------------------------------------------

 SCF Done:  E(RHF) =  -2419.17344324     A.U. after   17 cycles
 E2 =    -0.8883497321D+00 EUMP2 =    -0.24200617929729D+04
 CCSD(T)= -0.24201184826D+04

 The electronic state is 1-A.
 Alpha  occ. eigenvalues --  -58.48800 -58.48648 -58.48195 -58.48092 -58.48051
 Alpha  occ. eigenvalues --  -58.47801 -58.47801 -58.47787 -58.47178 -58.47178
 Alpha  occ. eigenvalues --   -4.89901  -4.89820  -4.89394  -4.89383  -4.89323
 Alpha  occ. eigenvalues --   -4.89079  -4.89076  -4.89034  -4.88591  -4.88589
 Alpha  occ. eigenvalues --   -3.21050  -3.20907  -3.20904  -3.20901  -3.20897
 Alpha  occ. eigenvalues --   -3.20800  -3.20612  -3.20531  -3.20525  -3.20502
 Alpha  occ. eigenvalues --   -3.20469  -3.20462  -3.20430  -3.20422  -3.20332
 Alpha  occ. eigenvalues --   -3.20298  -3.20289  -3.20235  -3.20230  -3.20223
 Alpha  occ. eigenvalues --   -3.20217  -3.20182  -3.20177  -3.20176  -3.19861
 Alpha  occ. eigenvalues --   -3.19845  -3.19768  -3.19766  -3.19760  -3.19753
 Alpha  occ. eigenvalues --   -0.67411  -0.57984  -0.53824  -0.48567  -0.44927
 Alpha  occ. eigenvalues --   -0.40493  -0.39092  -0.33862  -0.27734  -0.26146
 Alpha  occ. eigenvalues --   -0.26074  -0.25815  -0.23586  -0.23070  -0.22841
 Alpha virt. eigenvalues --   -0.03425  -0.01503  -0.01462  -0.00376   0.00591
 Alpha virt. eigenvalues --    0.01365   0.04613   0.05753   0.07091   0.07228
 Alpha virt. eigenvalues --    0.07650   0.08600   0.09371   0.10630   0.11577

 Mulliken charges:
               1
     1  Al  -0.016104
     2  Al   0.075133
     3  Al  -0.033234
     4  Al  -0.053287
     5  Al  -0.053288
     6  Al   0.035845
     7  Al  -0.013978
     8  Al  -0.024730
     9  Al   0.035845
    10  Al   0.047799
 Sum of Mulliken charges =   0.00000

 Dipole moment (field-independent basis, Debye):
    X=              0.4938    Y=             -0.2533    Z=             -0.0001  Tot=              0.5550
 Quadrupole moment (field-independent basis, Debye-Ang):
   XX=           -125.2403   YY=           -136.9072   ZZ=           -128.4014
   XY=             -0.0323   XZ=             -0.0004   YZ=              0.0000

 .0073285\CCSD(T)=-2420.1184826\RMSD=9.131e-09\PG=C01 [X(Al10)]\\@
 Normal termination of Gaussian 09 at Mon Oct  3 11:23:02 2016.
