 Gaussian 09, Revision D.01,

 ------------------------
 # hf/6-31G* test scf=xqc
 ------------------------

 --------
 Al10-c-d
 --------
 Symbolic Z-matrix:
 Charge =  1 Multiplicity = 2

 SCF Done:  E(UHF) =  -2418.75470172     A.U. after   65 cycles
 SCF Done:  E(UHF) =  -2418.77295389     a.u. after   44 cycles
 Normal termination of Gaussian 09 at Mon Oct  3 09:54:41 2016.
 Gaussian 09:  ES64L-G09RevD.01 24-Apr-2013

 --------------------------------------------------------
 # CCSD(T,conver=5)/cc-pVTZ test geom=allcheck guess=read
 --------------------------------------------------------

 Structure from the checkpoint file:  "cc-Al10-c-d.chk"
 --------
 Al10-c-d
 --------
 Charge =  1 Multiplicity = 2

                         Standard orientation:
 ---------------------------------------------------------------------
 Center     Atomic      Atomic             Coordinates (Angstroms)
 Number     Number       Type             X           Y           Z
 ---------------------------------------------------------------------
      1         13           0        2.324482   -1.720294    0.000000
      2         13           0       -2.393766   -2.161399    0.000000
      3         13           0        0.099588   -2.984875    0.000000
      4         13           0        0.205185   -0.687890    1.511744
      5         13           0        0.205185   -0.687890   -1.511744
      6         13           0        0.205185    1.850008    1.609656
      7         13           0        2.237536    0.979775    0.000000
      8         13           0       -1.793948    0.445966    0.000000
      9         13           0        0.205185    1.850008   -1.609656
     10         13           0       -1.294633    3.116591    0.000000
 ---------------------------------------------------------------------

 SCF Done:  E(UHF) =  -2418.99392557     A.U. after   31 cycles
 E2 =    -0.7484832799D+00 EUMP2 =    -0.24197424088457D+04
 CCSD(T)= -0.24198793883D+04

 The electronic state is 2-A'.
 Alpha  occ. eigenvalues --  -58.64756 -58.63002 -58.61910 -58.61479 -58.61105
 Alpha  occ. eigenvalues --  -58.61105 -58.61100 -58.60426 -58.60426 -58.60310
 Alpha  occ. eigenvalues --   -5.05808  -5.04196  -5.03200  -5.02845  -5.02507
 Alpha  occ. eigenvalues --   -5.02504  -5.02270  -5.01668  -5.01667  -5.01404
 Alpha  occ. eigenvalues --   -3.36967  -3.36740  -3.36572  -3.35402  -3.35147
 Alpha  occ. eigenvalues --   -3.35071  -3.34758  -3.34283  -3.34152  -3.34051
 Alpha  occ. eigenvalues --   -3.33913  -3.33882  -3.33859  -3.33850  -3.33808
 Alpha  occ. eigenvalues --   -3.33802  -3.33615  -3.33518  -3.33516  -3.33388
 Alpha  occ. eigenvalues --   -3.33333  -3.32902  -3.32900  -3.32884  -3.32877
 Alpha  occ. eigenvalues --   -3.32872  -3.32817  -3.32745  -3.32745  -3.32258
 Alpha  occ. eigenvalues --   -0.81225  -0.71146  -0.67710  -0.62721  -0.59183
 Alpha  occ. eigenvalues --   -0.55375  -0.52225  -0.47989  -0.42722  -0.41172
 Alpha  occ. eigenvalues --   -0.39825  -0.39567  -0.38395  -0.37418  -0.36964
 Alpha virt. eigenvalues --   -0.14646  -0.14194  -0.13172  -0.11926  -0.11319
 Alpha virt. eigenvalues --   -0.10542  -0.07884  -0.06535  -0.05293  -0.05231
 Alpha virt. eigenvalues --   -0.04263  -0.04089  -0.02164  -0.01619   0.00220

  Beta  occ. eigenvalues --  -58.64489 -58.62763 -58.61848 -58.61290 -58.61041
  Beta  occ. eigenvalues --  -58.60916 -58.60916 -58.60708 -58.60708 -58.60564
  Beta  occ. eigenvalues --   -5.05308  -5.03738  -5.03098  -5.02604  -5.02215
  Beta  occ. eigenvalues --   -5.02214  -5.02172  -5.02170  -5.02119  -5.01928
  Beta  occ. eigenvalues --   -3.36521  -3.36494  -3.36127  -3.35006  -3.34928
  Beta  occ. eigenvalues --   -3.34697  -3.34531  -3.34349  -3.33936  -3.33878
  Beta  occ. eigenvalues --   -3.33799  -3.33502  -3.33489  -3.33485  -3.33415
  Beta  occ. eigenvalues --   -3.33390  -3.33382  -3.33361  -3.33360  -3.33336
  Beta  occ. eigenvalues --   -3.33286  -3.33284  -3.33211  -3.33206  -3.33192
  Beta  occ. eigenvalues --   -3.33132  -3.33125  -3.33092  -3.32752  -3.32689
  Beta  occ. eigenvalues --   -0.79700  -0.70932  -0.64806  -0.63084  -0.57803
  Beta  occ. eigenvalues --   -0.53138  -0.49224  -0.47380  -0.42279  -0.39642
  Beta  occ. eigenvalues --   -0.39255  -0.38968  -0.36875  -0.36809
  Beta virt. eigenvalues --   -0.16545  -0.14568  -0.13985  -0.12778  -0.11455
  Beta virt. eigenvalues --   -0.11317  -0.07847  -0.07139  -0.06238  -0.04932
  Beta virt. eigenvalues --   -0.04434  -0.03529  -0.02326  -0.01625  -0.01052

 Mulliken charges and spin densities:
               1          2
     1  Al   0.096756   0.798216
     2  Al   0.319414   0.400251
     3  Al   0.103065  -0.358656
     4  Al  -0.030425   0.417112
     5  Al  -0.030425   0.417112
     6  Al   0.112692  -0.450081
     7  Al   0.145866   0.415508
     8  Al  -0.011744   0.171171
     9  Al   0.112692  -0.450081
    10  Al   0.182108  -0.360553
 Sum of Mulliken charges =   1.00000   1.00000

 Dipole moment (field-independent basis, Debye):
    X=             -0.4582    Y=             -1.5508    Z=              0.0000  Tot=              1.6171
 Quadrupole moment (field-independent basis, Debye-Ang):
   XX=           -101.1510   YY=            -98.2197   ZZ=           -111.7918
   XY=              7.4181   XZ=              0.0000   YZ=              0.0000

 CCSD=-2419.7724621\CCSD(T)=-2419.8793883\S2=2.685176\S2-1=2.45941\S2A=
 Normal termination of Gaussian 09 at Mon Oct  3 11:21:49 2016.
