 Gaussian 09, Revision D.01,

 ------------------------
 # hf/6-31G* test scf=xqc
 ------------------------

 --------
 Al11-n-d
 --------
 Symbolic Z-matrix:
 Charge =  0 Multiplicity = 2

 SCF Done:  E(UHF) =  -2660.85872893     A.U. after   48 cycles
 Normal termination of Gaussian 09 at Mon Oct  3 06:33:02 2016.
 Gaussian 09:  ES64L-G09RevD.01 24-Apr-2013

 ----------------------------------------------------------------
 # CCSD(T,conver=5)/cc-pVTZ test geom=allcheck guess=read scf=xqc
 ----------------------------------------------------------------

 Structure from the checkpoint file:  "cc-Al11-n-d.chk"
 --------
 Al11-n-d
 --------
 Charge =  0 Multiplicity = 2

                         Standard orientation:
 ---------------------------------------------------------------------
 Center     Atomic      Atomic             Coordinates (Angstroms)
 Number     Number       Type             X           Y           Z
 ---------------------------------------------------------------------
      1         13           0        0.000000    2.855600    1.059441
      2         13           0        0.000000    1.330860   -1.357858
      3         13           0        0.000000   -1.330860   -1.357858
      4         13           0        0.000000    0.000000    1.065139
      5         13           0        0.000000   -2.855600    1.059441
      6         13           0       -2.226687   -1.556245    0.625451
      7         13           0       -2.226687    1.556245    0.625451
      8         13           0        2.226687    1.556245    0.625451
      9         13           0        2.226687   -1.556245    0.625451
     10         13           0        2.415914    0.000000   -1.485054
     11         13           0       -2.415914    0.000000   -1.485054
 ---------------------------------------------------------------------

 SCF Done:  E(UHF) =  -2661.10165150     A.U. after   65 cycles
 SCF Done:  E(UHF) =  -2661.10197596     a.u. after   10 cycles
 E2 =    -0.9678089142D+00 EUMP2 =    -0.26620697848737D+04
 CCSD(T)= -0.26621498772D+04

 The electronic state is 2-A1.
 Alpha  occ. eigenvalues --  -58.49159 -58.49159 -58.49159 -58.49159 -58.48961
 Alpha  occ. eigenvalues --  -58.48961 -58.48369 -58.48369 -58.47550 -58.47550
 Alpha  occ. eigenvalues --  -58.46350  -4.90251  -4.90250  -4.90248  -4.90247
 Alpha  occ. eigenvalues --   -4.90234  -4.90233  -4.89783  -4.89774  -4.88895
 Alpha  occ. eigenvalues --   -4.88895  -4.87981  -3.21506  -3.21505  -3.21498
 Alpha  occ. eigenvalues --   -3.21495  -3.21455  -3.21454  -3.21406  -3.21405
 Alpha  occ. eigenvalues --   -3.21349  -3.21349  -3.21344  -3.21344  -3.21210
 Alpha  occ. eigenvalues --   -3.21209  -3.21202  -3.21202  -3.21193  -3.21151
 Alpha  occ. eigenvalues --   -3.21093  -3.21093  -3.20889  -3.20870  -3.20760
 Alpha  occ. eigenvalues --   -3.20752  -3.20133  -3.20132  -3.19885  -3.19885
 Alpha  occ. eigenvalues --   -3.19884  -3.19884  -3.19359  -3.19101  -3.19053
 Alpha  occ. eigenvalues --   -0.69792  -0.58568  -0.58171  -0.52787  -0.44674
 Alpha  occ. eigenvalues --   -0.43038  -0.40550  -0.38747  -0.38590  -0.27475
 Alpha  occ. eigenvalues --   -0.27453  -0.27125  -0.26198  -0.24546  -0.24543
 Alpha  occ. eigenvalues --   -0.24154  -0.23223
 Alpha virt. eigenvalues --   -0.03703  -0.02346  -0.01075  -0.00691   0.01117
 Alpha virt. eigenvalues --    0.01377   0.03521   0.04644   0.05147   0.06124
 Alpha virt. eigenvalues --    0.07874   0.07966   0.08249   0.08729   0.10769

  Beta  occ. eigenvalues --  -58.49297 -58.49297 -58.49297 -58.49297 -58.48754
  Beta  occ. eigenvalues --  -58.48754 -58.48115 -58.48115 -58.47423 -58.47423
  Beta  occ. eigenvalues --  -58.46438  -4.90501  -4.90501  -4.90499  -4.90499
  Beta  occ. eigenvalues --   -4.89906  -4.89906  -4.89326  -4.89320  -4.88690
  Beta  occ. eigenvalues --   -4.88690  -4.88074  -3.21711  -3.21711  -3.21707
  Beta  occ. eigenvalues --   -3.21707  -3.21538  -3.21537  -3.21534  -3.21534
  Beta  occ. eigenvalues --   -3.21385  -3.21383  -3.21380  -3.21379  -3.21211
  Beta  occ. eigenvalues --   -3.21210  -3.20868  -3.20868  -3.20792  -3.20792
  Beta  occ. eigenvalues --   -3.20714  -3.20707  -3.20601  -3.20588  -3.20353
  Beta  occ. eigenvalues --   -3.20302  -3.19837  -3.19836  -3.19743  -3.19743
  Beta  occ. eigenvalues --   -3.19638  -3.19638  -3.19553  -3.19360  -3.19277
  Beta  occ. eigenvalues --   -0.69120  -0.58152  -0.57553  -0.51600  -0.44134
  Beta  occ. eigenvalues --   -0.42754  -0.39374  -0.38813  -0.34117  -0.28241
  Beta  occ. eigenvalues --   -0.26481  -0.25983  -0.25358  -0.24635  -0.24320
  Beta  occ. eigenvalues --   -0.22171
  Beta virt. eigenvalues --   -0.02590  -0.02362  -0.02258  -0.00466  -0.00197
  Beta virt. eigenvalues --    0.01053   0.03076   0.04308   0.04498   0.05478
  Beta virt. eigenvalues --    0.05618   0.08562   0.08626   0.09359   0.10387

 Mulliken charges and spin densities:
               1          2
     1  Al   0.026705   0.361045
     2  Al  -0.035080   0.427844
     3  Al  -0.035080   0.427844
     4  Al  -0.045640  -0.145980
     5  Al   0.026705   0.361045
     6  Al   0.033826  -0.253674
     7  Al   0.033826  -0.253674
     8  Al   0.033826  -0.253674
     9  Al   0.033826  -0.253674
    10  Al  -0.036456   0.291448
    11  Al  -0.036456   0.291449
 Sum of Mulliken charges =   0.00000   1.00000

 Dipole moment (field-independent basis, Debye):
    X=              0.0000    Y=              0.0000    Z=              0.4760  Tot=              0.4760
 Quadrupole moment (field-independent basis, Debye-Ang):
   XX=           -148.0525   YY=           -147.1859   ZZ=           -142.2815
   XY=              0.0000   XZ=              0.0000   YZ=              0.0000

 \MP4SDQ=-2662.0387523\CCSD=-2662.0223446\CCSD(T)=-2662.1498772\S2=1.95
 Normal termination of Gaussian 09 at Mon Oct  3 07:37:11 2016.
