 Gaussian 09, Revision D.01,

 ------------------------
 # hf/6-31G* test scf=xqc
 ------------------------

 --------
 Al13-c-s
 --------
 Symbolic Z-matrix:
 Charge =  1 Multiplicity = 1

 SCF Done:  E(RHF) =  -2660.65203681     A.U. after   22 cycles
 Normal termination of Gaussian 09 at Mon Oct  3 10:04:48 2016.
 Gaussian 09:  ES64L-G09RevD.01 24-Apr-2013

 --------------------------------------------------------
 # CCSD(T,conver=5)/cc-pVTZ test geom=allcheck guess=read
 --------------------------------------------------------

 Structure from the checkpoint file:  "cc-Al11-c-s.chk"
 --------
 Al13-c-s
 --------
 Charge =  1 Multiplicity = 1

                         Standard orientation:
 ---------------------------------------------------------------------
 Center     Atomic      Atomic             Coordinates (Angstroms)
 Number     Number       Type             X           Y           Z
 ---------------------------------------------------------------------
      1         13           0        0.521073   -2.738328   -1.009471
      2         13           0        0.346927   -1.256793    1.355963
      3         13           0       -0.357003    1.247410    1.358930
      4         13           0        0.004785    0.003089   -1.115764
      5         13           0       -0.517833    2.744894   -1.003926
      6         13           0       -2.527260    1.153126   -0.663902
      7         13           0       -1.916058   -1.907057   -0.606445
      8         13           0        2.533264   -1.154099   -0.659855
      9         13           0        1.917735    1.913637   -0.596685
     10         13           0        2.516385    0.442358    1.472664
     11         13           0       -2.522013   -0.448235    1.468491
 ---------------------------------------------------------------------

 SCF Done:  E(RHF) =  -2660.89495001     A.U. after   20 cycles
 E2 =    -0.9828821598D+00 EUMP2 =    -0.26618778321686D+04
 CCSD(T)= -0.26619241655D+04

 The electronic state is 1-A.
 Alpha  occ. eigenvalues --  -58.63231 -58.63221 -58.61543 -58.61541 -58.61436
 Alpha  occ. eigenvalues --  -58.61426 -58.61403 -58.61399 -58.60654 -58.60650
 Alpha  occ. eigenvalues --  -58.59128  -5.04396  -5.04382  -5.02654  -5.02651
 Alpha  occ. eigenvalues --   -5.02587  -5.02576  -5.02517  -5.02514  -5.01849
 Alpha  occ. eigenvalues --   -5.01848  -5.00745  -3.35598  -3.35563  -3.35495
 Alpha  occ. eigenvalues --   -3.35490  -3.35482  -3.35445  -3.33786  -3.33785
 Alpha  occ. eigenvalues --   -3.33755  -3.33744  -3.33719  -3.33718  -3.33700
 Alpha  occ. eigenvalues --   -3.33689  -3.33681  -3.33677  -3.33632  -3.33626
 Alpha  occ. eigenvalues --   -3.33597  -3.33595  -3.33551  -3.33547  -3.33492
 Alpha  occ. eigenvalues --   -3.33489  -3.32917  -3.32915  -3.32861  -3.32859
 Alpha  occ. eigenvalues --   -3.32797  -3.32795  -3.32022  -3.31979  -3.31902
 Alpha  occ. eigenvalues --   -0.81636  -0.70812  -0.70017  -0.64342  -0.56716
 Alpha  occ. eigenvalues --   -0.55816  -0.51458  -0.51032  -0.47500  -0.39571
 Alpha  occ. eigenvalues --   -0.39125  -0.38941  -0.36888  -0.36531  -0.36020
 Alpha  occ. eigenvalues --   -0.34944
 Alpha virt. eigenvalues --   -0.17123  -0.14974  -0.13963  -0.13651  -0.12032
 Alpha virt. eigenvalues --   -0.10887  -0.09938  -0.07813  -0.06756  -0.06521
 Alpha virt. eigenvalues --   -0.05665  -0.03859  -0.02887  -0.02094  -0.01738

 Mulliken charges:
               1
     1  Al   0.122306
     2  Al   0.080777
     3  Al   0.080704
     4  Al  -0.061343
     5  Al   0.122500
     6  Al   0.117625
     7  Al   0.118614
     8  Al   0.118768
     9  Al   0.119248
    10  Al   0.090200
    11  Al   0.090601
 Sum of Mulliken charges =   1.00000

 Dipole moment (field-independent basis, Debye):
    X=              0.0039    Y=             -0.0013    Z=              0.2700  Tot=              0.2700
 Quadrupole moment (field-independent basis, Debye-Ang):
   XX=           -114.6067   YY=           -116.1555   ZZ=           -117.4396
   XY=             -0.3773   XZ=             -0.0583   YZ=              0.0061

 02772\MP4SDQ=-2661.8281508\CCSD=-2661.7993119\CCSD(T)=-2661.9241655\RM
 Normal termination of Gaussian 09 at Mon Oct  3 13:15:04 2016.
