 Gaussian 09, Revision D.01,

 ------------------------
 # hf/6-31G* test scf=xqc
 ------------------------

 ----------
 Al12-n-s-3
 ----------
 Symbolic Z-matrix:
 Charge =  0 Multiplicity = 1

 SCF Done:  E(RHF) =  -2902.75755413     A.U. after   23 cycles
 Normal termination of Gaussian 09 at Mon Oct  3 19:30:12 2016.
 Gaussian 09:  ES64L-G09RevD.01 24-Apr-2013

 --------------------------------------------------------
 # CCSD(T,conver=5)/cc-pVTZ test geom=allcheck guess=read
 --------------------------------------------------------

 Structure from the checkpoint file:  "cc-Al12-n-s-3.chk"
 ----------
 Al12-n-s-3
 ----------
 Charge =  0 Multiplicity = 1

                         Standard orientation:
 ---------------------------------------------------------------------
 Center     Atomic      Atomic             Coordinates (Angstroms)
 Number     Number       Type             X           Y           Z
 ---------------------------------------------------------------------
      1         13           0       -2.204986   -1.462289   -1.375265
      2         13           0        2.210085   -1.453631   -1.376051
      3         13           0        0.004943   -2.690771   -0.347123
      4         13           0       -2.432644   -0.800122    1.166367
      5         13           0        2.235508    1.187223   -1.277602
      6         13           0        2.432795   -0.799047    1.167512
      7         13           0       -0.000263   -1.025622    1.936969
      8         13           0        1.348998    1.547899    1.383673
      9         13           0       -2.239180    1.179070   -1.278347
     10         13           0       -0.003722    2.790272   -0.846340
     11         13           0       -1.351651    1.548303    1.382020
     12         13           0        0.000116   -0.021285   -0.535815
 ---------------------------------------------------------------------

 SCF Done:  E(RHF) =  -2903.01656046     A.U. after   20 cycles
 E2 =    -0.1154562402D+01 EUMP2 =    -0.29041711228641D+04
 CCSD(T)= -0.29041947282D+04

 The electronic state is 1-A.
 Alpha  occ. eigenvalues --  -58.49734 -58.49385 -58.49380 -58.49017 -58.49014
 Alpha  occ. eigenvalues --  -58.49012 -58.48870 -58.48867 -58.48333 -58.48331
 Alpha  occ. eigenvalues --  -58.48055 -58.43493  -4.90720  -4.90520  -4.90515
 Alpha  occ. eigenvalues --   -4.90149  -4.90147  -4.90138  -4.90131  -4.90065
 Alpha  occ. eigenvalues --   -4.89604  -4.89602  -4.89429  -4.85626  -3.21866
 Alpha  occ. eigenvalues --   -3.21773  -3.21765  -3.21622  -3.21617  -3.21591
 Alpha  occ. eigenvalues --   -3.21586  -3.21512  -3.21508  -3.21300  -3.21299
 Alpha  occ. eigenvalues --   -3.21262  -3.21251  -3.21241  -3.21232  -3.21230
 Alpha  occ. eigenvalues --   -3.21221  -3.21195  -3.21179  -3.21178  -3.21165
 Alpha  occ. eigenvalues --   -3.21136  -3.21111  -3.21049  -3.20768  -3.20765
 Alpha  occ. eigenvalues --   -3.20722  -3.20692  -3.20686  -3.20673  -3.20641
 Alpha  occ. eigenvalues --   -3.20627  -3.20603  -3.17002  -3.16978  -3.16966
 Alpha  occ. eigenvalues --   -0.70609  -0.60074  -0.58086  -0.54505  -0.44557
 Alpha  occ. eigenvalues --   -0.44427  -0.43921  -0.39762  -0.38947  -0.30946
 Alpha  occ. eigenvalues --   -0.27285  -0.26641  -0.25843  -0.25435  -0.25090
 Alpha  occ. eigenvalues --   -0.24455  -0.23433  -0.22803
 Alpha virt. eigenvalues --   -0.04769  -0.02293  -0.01634  -0.00897  -0.00317
 Alpha virt. eigenvalues --   -0.00298   0.00555   0.04186   0.04434   0.05614
 Alpha virt. eigenvalues --    0.06557   0.06595   0.08064   0.09297   0.09422

 Mulliken charges:
               1
     1  Al  -0.002424
     2  Al  -0.002726
     3  Al   0.016128
     4  Al   0.005834
     5  Al  -0.012055
     6  Al   0.005982
     7  Al  -0.115860
     8  Al  -0.076784
     9  Al  -0.012274
    10  Al  -0.027819
    11  Al  -0.077010
    12  Al   0.299006
 Sum of Mulliken charges =   0.00000

 Dipole moment (field-independent basis, Debye):
    X=              0.0016    Y=             -0.0821    Z=              1.0735  Tot=              1.0766
 Quadrupole moment (field-independent basis, Debye-Ang):
   XX=           -155.4006   YY=           -164.1169   ZZ=           -154.8928
   XY=              0.0016   XZ=             -0.0194   YZ=              1.4805

 4.0472541\CCSD(T)=-2904.1947282\RMSD=7.064e-09\PG=C01 [X(Al12)]\\@
 Normal termination of Gaussian 09 at Tue Oct  4 04:47:59 2016.
