 Gaussian 09, Revision D.01,

 ------------------------
 # hf/6-31G* test scf=xqc
 ------------------------

 --------
 Al12-c-d
 --------
 Symbolic Z-matrix:
 Charge =  1 Multiplicity = 2

 SCF Done:  E(UHF) =  -2902.58829871     A.U. after   47 cycles
 Normal termination of Gaussian 09 at Mon Oct  3 19:33:10 2016.
 Gaussian 09:  ES64L-G09RevD.01 24-Apr-2013

 --------------------------------------------------------
 # CCSD(T,conver=5)/cc-pVTZ test geom=allcheck guess=read
 --------------------------------------------------------

 Structure from the checkpoint file:  "cc-Al12-c-d.chk"
 --------
 Al12-c-d
 --------
 Charge =  1 Multiplicity = 2

                         Standard orientation:
 ---------------------------------------------------------------------
 Center     Atomic      Atomic             Coordinates (Angstroms)
 Number     Number       Type             X           Y           Z
 ---------------------------------------------------------------------
      1         13           0        1.682138    0.222000    2.190164
      2         13           0        3.067669    0.325046    0.000000
      3         13           0       -0.395303   -1.361044    2.216190
      4         13           0       -2.264398    0.496317    1.339750
      5         13           0        1.682138    0.222000   -2.190164
      6         13           0        1.135570   -1.600572    0.000000
      7         13           0       -1.556226   -1.805613    0.000000
      8         13           0       -0.395303   -1.361044   -2.216190
      9         13           0       -0.395303    1.736106    2.728810
     10         13           0       -0.395303    1.736106   -2.728810
     11         13           0       -2.264398    0.496317   -1.339750
     12         13           0        0.098720    0.894382    0.000000
 ---------------------------------------------------------------------

 SCF Done:  E(UHF) =  -2902.85006332     A.U. after   40 cycles
 E2 =    -0.1049638554D+01 EUMP2 =    -0.29038997018781D+04
 CCSD(T)= -0.29039685778D+04

 The electronic state is 2-A'.
 Alpha  occ. eigenvalues --  -58.62444 -58.61664 -58.61664 -58.61638 -58.61638
 Alpha  occ. eigenvalues --  -58.61542 -58.61301 -58.61140 -58.61140 -58.60578
 Alpha  occ. eigenvalues --  -58.60578 -58.57959  -5.03633  -5.02888  -5.02887
 Alpha  occ. eigenvalues --   -5.02880  -5.02771  -5.02771  -5.02673  -5.02174
 Alpha  occ. eigenvalues --   -5.02174  -5.01853  -5.01852  -4.99573  -3.34890
 Alpha  occ. eigenvalues --   -3.34751  -3.34508  -3.34454  -3.34216  -3.34195
 Alpha  occ. eigenvalues --   -3.34053  -3.34051  -3.34039  -3.34018  -3.34017
 Alpha  occ. eigenvalues --   -3.33990  -3.33988  -3.33986  -3.33948  -3.33900
 Alpha  occ. eigenvalues --   -3.33881  -3.33854  -3.33835  -3.33835  -3.33823
 Alpha  occ. eigenvalues --   -3.33220  -3.33220  -3.33179  -3.33179  -3.33151
 Alpha  occ. eigenvalues --   -3.33150  -3.33043  -3.33042  -3.33015  -3.33015
 Alpha  occ. eigenvalues --   -3.32985  -3.32983  -3.30961  -3.30850  -3.30761
 Alpha  occ. eigenvalues --   -0.83072  -0.72166  -0.72046  -0.66873  -0.58937
 Alpha  occ. eigenvalues --   -0.57110  -0.55682  -0.53378  -0.49995  -0.45075
 Alpha  occ. eigenvalues --   -0.41830  -0.40326  -0.39061  -0.37525  -0.37220
 Alpha  occ. eigenvalues --   -0.37049  -0.35709  -0.34558
 Alpha virt. eigenvalues --   -0.14962  -0.14043  -0.13982  -0.12938  -0.12245
 Alpha virt. eigenvalues --   -0.10773  -0.09429  -0.09367  -0.06473  -0.06253
 Alpha virt. eigenvalues --   -0.04200  -0.03785  -0.03235  -0.03154  -0.01626

  Beta  occ. eigenvalues --  -58.62188 -58.61745 -58.61745 -58.61486 -58.61486
  Beta  occ. eigenvalues --  -58.61356 -58.61232 -58.61232 -58.61113 -58.60592
  Beta  occ. eigenvalues --  -58.60592 -58.57957  -5.03181  -5.02939  -5.02939
  Beta  occ. eigenvalues --   -5.02603  -5.02562  -5.02556  -5.02346  -5.02335
  Beta  occ. eigenvalues --   -5.02335  -5.01884  -5.01883  -4.99561  -3.34378
  Beta  occ. eigenvalues --   -3.34362  -3.34274  -3.34272  -3.34213  -3.34150
  Beta  occ. eigenvalues --   -3.34149  -3.34048  -3.34045  -3.33985  -3.33919
  Beta  occ. eigenvalues --   -3.33911  -3.33901  -3.33757  -3.33730  -3.33676
  Beta  occ. eigenvalues --   -3.33630  -3.33630  -3.33601  -3.33547  -3.33438
  Beta  occ. eigenvalues --   -3.33363  -3.33363  -3.33278  -3.33278  -3.33200
  Beta  occ. eigenvalues --   -3.33200  -3.33156  -3.33155  -3.33057  -3.33055
  Beta  occ. eigenvalues --   -3.32998  -3.32998  -3.30981  -3.30834  -3.30786
  Beta  occ. eigenvalues --   -0.82364  -0.72351  -0.70569  -0.65514  -0.57693
  Beta  occ. eigenvalues --   -0.57268  -0.56045  -0.52302  -0.46014  -0.44742
  Beta  occ. eigenvalues --   -0.41737  -0.40318  -0.38032  -0.37013  -0.36911
  Beta  occ. eigenvalues --   -0.35678  -0.35348
  Beta virt. eigenvalues --   -0.15232  -0.14299  -0.13597  -0.13275  -0.12096
  Beta virt. eigenvalues --   -0.10959  -0.10004  -0.09790  -0.07736  -0.06106
  Beta virt. eigenvalues --   -0.05569  -0.03970  -0.02699  -0.02609  -0.02167

 Mulliken charges and spin densities:
               1          2
     1  Al   0.112614  -0.184299
     2  Al   0.156469   0.431977
     3  Al   0.057762  -0.013384
     4  Al   0.061919   0.280412
     5  Al   0.112614  -0.184299
     6  Al   0.011811   0.370006
     7  Al   0.058342   0.324108
     8  Al   0.057762  -0.013384
     9  Al   0.172548  -0.127038
    10  Al   0.172548  -0.127038
    11  Al   0.061919   0.280412
    12  Al  -0.036308  -0.037474
 Sum of Mulliken charges =   1.00000   1.00000

 Dipole moment (field-independent basis, Debye):
    X=              0.4605    Y=             -1.1454    Z=              0.0000  Tot=              1.2345
 Quadrupole moment (field-independent basis, Debye-Ang):
   XX=           -123.6362   YY=           -133.7644   ZZ=           -122.0614
   XY=              0.8162   XZ=              0.0000   YZ=              0.0000

 4SDQ=-2903.8620648\CCSD=-2903.8336617\CCSD(T)=-2903.9685778\S2=1.30066
 Normal termination of Gaussian 09 at Mon Oct  3 22:48:37 2016.
