 Gaussian 09, Revision D.01,

 ------------------------
 # hf/6-31G* test scf=xqc
 ------------------------

 --------
 Al12-c-d
 --------
 Symbolic Z-matrix:
 Charge =  1 Multiplicity = 2

 SCF Done:  E(UHF) =  -2902.58712970     A.U. after   65 cycles
 SCF Done:  E(UHF) =  -2902.58818394     a.u. after    9 cycles
 Normal termination of Gaussian 09 at Mon Oct  3 19:36:38 2016.
 Gaussian 09:  ES64L-G09RevD.01 24-Apr-2013

 --------------------------------------------------------
 # CCSD(T,conver=5)/cc-pVTZ test geom=allcheck guess=read
 --------------------------------------------------------

 Structure from the checkpoint file:  "cc-Al12-c-d-2.chk"
 --------
 Al12-c-d
 --------
 Charge =  1 Multiplicity = 2

                         Standard orientation:
 ---------------------------------------------------------------------
 Center     Atomic      Atomic             Coordinates (Angstroms)
 Number     Number       Type             X           Y           Z
 ---------------------------------------------------------------------
      1         13           0        1.545759   -0.323100    2.326574
      2         13           0       -0.000174    1.802003    2.344070
      3         13           0       -1.545897   -0.323098    2.326839
      4         13           0       -0.000174   -2.222976    1.274574
      5         13           0       -0.000174    1.802003   -2.344070
      6         13           0       -0.000055    2.899144    0.000000
      7         13           0       -2.682108   -0.499886    0.000000
      8         13           0       -1.545897   -0.323098   -2.326839
      9         13           0        2.683028   -0.498220    0.000000
     10         13           0        1.545759   -0.323100   -2.326574
     11         13           0       -0.000174   -2.222976   -1.274574
     12         13           0        0.000106    0.233306    0.000000
 ---------------------------------------------------------------------

 SCF Done:  E(UHF) =  -2902.84749425     A.U. after   37 cycles
 E2 =    -0.1052132116D+01 EUMP2 =    -0.29038996263713D+04
 CCSD(T)= -0.29039604811D+04

 The electronic state is 2-A".
 Alpha  occ. eigenvalues --  -58.62474 -58.61529 -58.61526 -58.61466 -58.61466
 Alpha  occ. eigenvalues --  -58.61367 -58.61367 -58.61366 -58.61366 -58.61218
 Alpha  occ. eigenvalues --  -58.61218 -58.55260  -5.03493  -5.02699  -5.02699
 Alpha  occ. eigenvalues --   -5.02664  -5.02662  -5.02534  -5.02534  -5.02532
 Alpha  occ. eigenvalues --   -5.02532  -5.02411  -5.02400  -4.97310  -3.34795
 Alpha  occ. eigenvalues --   -3.34578  -3.34552  -3.34080  -3.34079  -3.34014
 Alpha  occ. eigenvalues --   -3.34014  -3.33848  -3.33847  -3.33846  -3.33844
 Alpha  occ. eigenvalues --   -3.33739  -3.33738  -3.33715  -3.33714  -3.33699
 Alpha  occ. eigenvalues --   -3.33698  -3.33673  -3.33669  -3.33659  -3.33657
 Alpha  occ. eigenvalues --   -3.33655  -3.33653  -3.33650  -3.33638  -3.33637
 Alpha  occ. eigenvalues --   -3.33624  -3.33620  -3.33614  -3.33611  -3.33606
 Alpha  occ. eigenvalues --   -3.33542  -3.33457  -3.28711  -3.28697  -3.28689
 Alpha  occ. eigenvalues --   -0.81906  -0.73302  -0.68509  -0.67884  -0.58136
 Alpha  occ. eigenvalues --   -0.56930  -0.56611  -0.55659  -0.49351  -0.43692
 Alpha  occ. eigenvalues --   -0.41917  -0.41471  -0.39129  -0.37700  -0.37575
 Alpha  occ. eigenvalues --   -0.37494  -0.35855  -0.35410
 Alpha virt. eigenvalues --   -0.13647  -0.13607  -0.12142  -0.11627  -0.11585
 Alpha virt. eigenvalues --   -0.11209  -0.10902  -0.09811  -0.07929  -0.07766
 Alpha virt. eigenvalues --   -0.05778  -0.03661  -0.02433  -0.01764  -0.01449

  Beta  occ. eigenvalues --  -58.62762 -58.61522 -58.61520 -58.61315 -58.61315
  Beta  occ. eigenvalues --  -58.61314 -58.61314 -58.61243 -58.61243 -58.61239
  Beta  occ. eigenvalues --  -58.61239 -58.55269  -5.03997  -5.02670  -5.02668
  Beta  occ. eigenvalues --   -5.02504  -5.02504  -5.02501  -5.02501  -5.02482
  Beta  occ. eigenvalues --   -5.02472  -5.02363  -5.02363  -4.97324  -3.35229
  Beta  occ. eigenvalues --   -3.35047  -3.34998  -3.33739  -3.33707  -3.33707
  Beta  occ. eigenvalues --   -3.33706  -3.33699  -3.33698  -3.33696  -3.33683
  Beta  occ. eigenvalues --   -3.33666  -3.33664  -3.33632  -3.33632  -3.33623
  Beta  occ. eigenvalues --   -3.33616  -3.33607  -3.33601  -3.33566  -3.33556
  Beta  occ. eigenvalues --   -3.33521  -3.33519  -3.33504  -3.33466  -3.33462
  Beta  occ. eigenvalues --   -3.33455  -3.33350  -3.33350  -3.33305  -3.33303
  Beta  occ. eigenvalues --   -3.33297  -3.33296  -3.28748  -3.28707  -3.28699
  Beta  occ. eigenvalues --   -0.81009  -0.71193  -0.68006  -0.66482  -0.56575
  Beta  occ. eigenvalues --   -0.54787  -0.54628  -0.53930  -0.49723  -0.40815
  Beta  occ. eigenvalues --   -0.39595  -0.38396  -0.37637  -0.36916  -0.36677
  Beta  occ. eigenvalues --   -0.36480  -0.35657
  Beta virt. eigenvalues --   -0.17002  -0.14405  -0.13409  -0.12685  -0.12315
  Beta virt. eigenvalues --   -0.12090  -0.11265  -0.09668  -0.08889  -0.08275
  Beta virt. eigenvalues --   -0.05707  -0.05361  -0.03814  -0.01979  -0.00810

 Mulliken charges and spin densities:
               1          2
     1  Al   0.103136   0.143321
     2  Al   0.095780   0.464314
     3  Al   0.103180   0.142560
     4  Al   0.042801  -0.015135
     5  Al   0.095780   0.464314
     6  Al   0.239336  -0.454159
     7  Al   0.157489   0.015554
     8  Al   0.103180   0.142560
     9  Al   0.157664   0.015984
    10  Al   0.103136   0.143321
    11  Al   0.042801  -0.015135
    12  Al  -0.244282  -0.047498
 Sum of Mulliken charges =   1.00000   1.00000

 Dipole moment (field-independent basis, Debye):
    X=              0.0009    Y=              0.4000    Z=              0.0000  Tot=              0.4000
 Quadrupole moment (field-independent basis, Debye-Ang):
   XX=           -133.6882   YY=           -125.8450   ZZ=           -122.2383
   XY=              0.0088   XZ=              0.0000   YZ=              0.0000

 73\MP4SDQ=-2903.8589739\CCSD=-2903.8263752\CCSD(T)=-2903.9604811\S2=1.
 Normal termination of Gaussian 09 at Mon Oct  3 22:45:30 2016.
