 Gaussian 09, Revision D.01,

 ------------------------
 # hf/6-31G* test scf=xqc
 ------------------------

 --------
 Al12-n-s
 --------
 Symbolic Z-matrix:
 Charge =  0 Multiplicity = 1

 SCF Done:  E(RHF) =  -2902.78348285     A.U. after   20 cycles
 Normal termination of Gaussian 09 at Mon Oct  3 19:26:01 2016.
 Gaussian 09:  ES64L-G09RevD.01 24-Apr-2013

 --------------------------------------------------------
 # CCSD(T,conver=5)/cc-pVTZ test geom=allcheck guess=read
 --------------------------------------------------------

 Structure from the checkpoint file:  "cc-Al12-n-s.chk"
 --------
 Al12-n-s
 --------
 Charge =  0 Multiplicity = 1

                         Standard orientation:
 ---------------------------------------------------------------------
 Center     Atomic      Atomic             Coordinates (Angstroms)
 Number     Number       Type             X           Y           Z
 ---------------------------------------------------------------------
      1         13           0        1.709092    0.778911    2.237397
      2         13           0        2.907028    0.069936    0.000000
      3         13           0       -0.109441   -1.238859    2.156306
      4         13           0       -2.378381    0.218961    1.328882
      5         13           0        1.709092    0.778911   -2.237397
      6         13           0        1.290704   -1.847750    0.000000
      7         13           0       -1.359610   -1.846563    0.000000
      8         13           0       -0.109441   -1.238859   -2.156306
      9         13           0       -0.665040    1.696405    2.587359
     10         13           0       -0.665040    1.696405   -2.587359
     11         13           0       -2.378381    0.218961   -1.328882
     12         13           0        0.049417    0.713541    0.000000
 ---------------------------------------------------------------------

 SCF Done:  E(RHF) =  -2903.04145531     A.U. after   17 cycles
 E2 =    -0.1108715918D+01 EUMP2 =    -0.29041501712318D+04
 CCSD(T)= -0.29041982368D+04

 The electronic state is 1-A'.
 Alpha  occ. eigenvalues --  -58.49035 -58.49035 -58.49023 -58.49023 -58.48658
 Alpha  occ. eigenvalues --  -58.48340 -58.48340 -58.47844 -58.47844 -58.47652
 Alpha  occ. eigenvalues --  -58.46793 -58.44048  -4.90203  -4.90196  -4.90158
 Alpha  occ. eigenvalues --   -4.90158  -4.89802  -4.89512  -4.89512  -4.89145
 Alpha  occ. eigenvalues --   -4.89144  -4.89088  -4.88230  -4.85770  -3.21478
 Alpha  occ. eigenvalues --   -3.21461  -3.21400  -3.21392  -3.21379  -3.21355
 Alpha  occ. eigenvalues --   -3.21355  -3.21331  -3.21312  -3.21311  -3.21231
 Alpha  occ. eigenvalues --   -3.21230  -3.21071  -3.20958  -3.20932  -3.20609
 Alpha  occ. eigenvalues --   -3.20609  -3.20569  -3.20569  -3.20489  -3.20489
 Alpha  occ. eigenvalues --   -3.20444  -3.20419  -3.20403  -3.20371  -3.20354
 Alpha  occ. eigenvalues --   -3.20330  -3.20322  -3.20294  -3.20272  -3.19529
 Alpha  occ. eigenvalues --   -3.19463  -3.19438  -3.17151  -3.17137  -3.17119
 Alpha  occ. eigenvalues --   -0.70113  -0.59614  -0.58104  -0.54443  -0.45148
 Alpha  occ. eigenvalues --   -0.44545  -0.42835  -0.39683  -0.37453  -0.32048
 Alpha  occ. eigenvalues --   -0.28646  -0.28039  -0.25328  -0.24366  -0.24355
 Alpha  occ. eigenvalues --   -0.24170  -0.23251  -0.22341
 Alpha virt. eigenvalues --   -0.02883  -0.01986  -0.01538  -0.00583   0.00475
 Alpha virt. eigenvalues --    0.01411   0.01833   0.03118   0.05438   0.05582
 Alpha virt. eigenvalues --    0.07474   0.07744   0.08445   0.08667   0.09606

 Mulliken charges:
               1
     1  Al   0.029762
     2  Al   0.029270
     3  Al  -0.074786
     4  Al  -0.026028
     5  Al   0.029762
     6  Al  -0.033676
     7  Al  -0.067137
     8  Al  -0.074786
     9  Al   0.020967
    10  Al   0.020967
    11  Al  -0.026028
    12  Al   0.171715
 Sum of Mulliken charges =   0.00000

 Dipole moment (field-independent basis, Debye):
    X=             -0.6349    Y=             -0.8912    Z=              0.0000  Tot=              1.0942
 Quadrupole moment (field-independent basis, Debye-Ang):
   XX=           -154.6409   YY=           -154.9631   ZZ=           -157.4461
   XY=              2.6816   XZ=              0.0000   YZ=              0.0000

 -2904.0802836\MP4SDQ=-2904.1038453\CCSD=-2904.0587043\CCSD(T)=-2904.19
 Normal termination of Gaussian 09 at Mon Oct  3 20:48:23 2016.
