 Gaussian 09, Revision D.01,

 ------------------------
 # hf/6-31G* test scf=xqc
 ------------------------

 ----------
 Al12-n-s-2
 ----------
 Symbolic Z-matrix:
 Charge =  0 Multiplicity = 1

 SCF Done:  E(RHF) =  -2902.77391296     A.U. after   20 cycles
 Normal termination of Gaussian 09 at Mon Oct  3 19:29:12 2016.
 Gaussian 09:  ES64L-G09RevD.01 24-Apr-2013

 --------------------------------------------------------
 # CCSD(T,conver=5)/cc-pVTZ test geom=allcheck guess=read
 --------------------------------------------------------

 Structure from the checkpoint file:  "cc-Al12-n-s-2.chk"
 ----------
 Al12-n-s-2
 ----------
 Charge =  0 Multiplicity = 1

                         Standard orientation:
 ---------------------------------------------------------------------
 Center     Atomic      Atomic             Coordinates (Angstroms)
 Number     Number       Type             X           Y           Z
 ---------------------------------------------------------------------
      1         13           0       -2.505950   -0.825961    1.295285
      2         13           0       -0.170286   -1.187940   -2.611489
      3         13           0       -0.170286   -1.187940    2.611489
      4         13           0       -1.229494    1.471732    1.596256
      5         13           0        2.138287   -1.380312   -1.326618
      6         13           0        2.138287   -1.380312    1.326618
      7         13           0        1.257217    1.105424    2.343482
      8         13           0        1.046347    2.089606    0.000000
      9         13           0       -2.505950   -0.825961   -1.295285
     10         13           0       -1.229494    1.471732   -1.596256
     11         13           0        1.257217    1.105424   -2.343482
     12         13           0       -0.025895   -0.455493    0.000000
 ---------------------------------------------------------------------

 SCF Done:  E(RHF) =  -2903.03062186     A.U. after   17 cycles
 E2 =    -0.1132026807D+01 EUMP2 =    -0.29041626486639D+04
 CCSD(T)= -0.29041964892D+04

 The electronic state is 1-A'.
 Alpha  occ. eigenvalues --  -58.49446 -58.49446 -58.48947 -58.48947 -58.48578
 Alpha  occ. eigenvalues --  -58.48578 -58.48477 -58.48225 -58.48225 -58.47974
 Alpha  occ. eigenvalues --  -58.47974 -58.43669  -4.90558  -4.90551  -4.90114
 Alpha  occ. eigenvalues --   -4.90105  -4.89764  -4.89741  -4.89741  -4.89457
 Alpha  occ. eigenvalues --   -4.89456  -4.89307  -4.89306  -4.85679  -3.21703
 Alpha  occ. eigenvalues --   -3.21684  -3.21658  -3.21647  -3.21611  -3.21569
 Alpha  occ. eigenvalues --   -3.21289  -3.21260  -3.21224  -3.21214  -3.21187
 Alpha  occ. eigenvalues --   -3.21134  -3.21017  -3.20943  -3.20943  -3.20890
 Alpha  occ. eigenvalues --   -3.20890  -3.20825  -3.20825  -3.20792  -3.20791
 Alpha  occ. eigenvalues --   -3.20573  -3.20572  -3.20527  -3.20520  -3.20492
 Alpha  occ. eigenvalues --   -3.20491  -3.20462  -3.20462  -3.20399  -3.20398
 Alpha  occ. eigenvalues --   -3.20369  -3.20368  -3.17060  -3.17055  -3.17038
 Alpha  occ. eigenvalues --   -0.69622  -0.60582  -0.56654  -0.54818  -0.45513
 Alpha  occ. eigenvalues --   -0.44213  -0.43449  -0.39447  -0.37853  -0.31079
 Alpha  occ. eigenvalues --   -0.26986  -0.26545  -0.26446  -0.25799  -0.24807
 Alpha  occ. eigenvalues --   -0.24072  -0.23169  -0.22891
 Alpha virt. eigenvalues --   -0.03729  -0.01596  -0.01280  -0.01093  -0.00426
 Alpha virt. eigenvalues --   -0.00109   0.00791   0.02774   0.05504   0.05579
 Alpha virt. eigenvalues --    0.05931   0.07079   0.07620   0.09305   0.09932

 Mulliken charges:
               1
     1  Al   0.022632
     2  Al  -0.027389
     3  Al  -0.027389
     4  Al  -0.048439
     5  Al   0.021309
     6  Al   0.021309
     7  Al  -0.052111
     8  Al  -0.035048
     9  Al   0.022632
    10  Al  -0.048439
    11  Al  -0.052111
    12  Al   0.203045
 Sum of Mulliken charges =   0.00000

 Dipole moment (field-independent basis, Debye):
    X=              0.3611    Y=              0.4883    Z=              0.0000  Tot=              0.6073
 Quadrupole moment (field-independent basis, Debye-Ang):
   XX=           -159.8721   YY=           -155.8284   ZZ=           -155.5884
   XY=              0.8431   XZ=              0.0000   YZ=              0.0000

 P4DQ=-2904.0823755\MP4SDQ=-2904.1022987\CCSD=-2904.0529615\CCSD(T)=-29
 Normal termination of Gaussian 09 at Mon Oct  3 20:49:55 2016.
