 Gaussian 09, Revision D.01,

 ------------------------
 # hf/6-31G* test scf=xqc
 ------------------------

 --------
 Al13-n-d
 --------
 Symbolic Z-matrix:
 Charge =  0 Multiplicity = 2

 SCF Done:  E(UHF) =  -3144.68500674     A.U. after   65 cycles
 SCF Done:  E(UHF) =  -3144.70082340     a.u. after   29 cycles
 Normal termination of Gaussian 09 at Sun Oct  2 18:34:03 2016.
 Gaussian 09:  ES64L-G09RevD.01 24-Apr-2013

 --------------------------------------------------------
 # CCSD(T,conver=5)/cc-pVTZ test geom=allcheck guess=read
 --------------------------------------------------------

 Structure from the checkpoint file:  "cc-Al13-n-d.chk"
 --------
 Al13-n-d
 --------
 Charge =  0 Multiplicity = 2

                         Standard orientation:
 ---------------------------------------------------------------------
 Center     Atomic      Atomic             Coordinates (Angstroms)
 Number     Number       Type             X           Y           Z
 ---------------------------------------------------------------------
      1         13           0       -1.510364    2.322337   -0.479028
      2         13           0        0.883748    2.001798   -1.643181
      3         13           0       -2.224062    0.009098   -1.613682
      4         13           0       -2.456641   -0.248728    1.154147
      5         13           0        2.566727    0.019352   -0.901408
      6         13           0        0.289851   -0.643468   -2.438105
      7         13           0       -1.348727   -2.298583   -0.584310
      8         13           0        1.306450   -2.328959   -0.459540
      9         13           0       -0.785425    1.690127    2.130003
     10         13           0        1.657973    1.951788    1.019445
     11         13           0        2.000568   -0.671867    1.746405
     12         13           0       -0.355506   -1.868379    1.971735
     13         13           0       -0.024591    0.065485    0.097520
 ---------------------------------------------------------------------

 SCF Done:  E(UHF) =  -3144.98472230     A.U. after   30 cycles
 E2 =    -0.1160360632D+01 EUMP2 =    -0.31461450829326D+04
 CCSD(T)= -0.31462491739D+04

 The electronic state is 2-A.
 Alpha  occ. eigenvalues --  -58.49309 -58.49270 -58.49259 -58.49013 -58.48965
 Alpha  occ. eigenvalues --  -58.48916 -58.48839 -58.48763 -58.48702 -58.48594
 Alpha  occ. eigenvalues --  -58.48443 -58.48415 -58.45549  -4.90618  -4.90554
 Alpha  occ. eigenvalues --   -4.90511  -4.90270  -4.90071  -4.90048  -4.90024
 Alpha  occ. eigenvalues --   -4.89986  -4.89900  -4.89888  -4.89586  -4.89580
 Alpha  occ. eigenvalues --   -4.87645  -3.22022  -3.21865  -3.21841  -3.21678
 Alpha  occ. eigenvalues --   -3.21645  -3.21610  -3.21524  -3.21449  -3.21438
 Alpha  occ. eigenvalues --   -3.21416  -3.21400  -3.21354  -3.21337  -3.21302
 Alpha  occ. eigenvalues --   -3.21291  -3.21275  -3.21255  -3.21208  -3.21189
 Alpha  occ. eigenvalues --   -3.21152  -3.21114  -3.21089  -3.21088  -3.21045
 Alpha  occ. eigenvalues --   -3.21040  -3.20993  -3.20979  -3.20973  -3.20939
 Alpha  occ. eigenvalues --   -3.20923  -3.20859  -3.20818  -3.20744  -3.20740
 Alpha  occ. eigenvalues --   -3.20617  -3.20523  -3.19103  -3.19026  -3.18928
 Alpha  occ. eigenvalues --   -0.73043  -0.60959  -0.60462  -0.58960  -0.45754
 Alpha  occ. eigenvalues --   -0.45187  -0.44528  -0.44045  -0.42484  -0.40012
 Alpha  occ. eigenvalues --   -0.28621  -0.28155  -0.27957  -0.27343  -0.26605
 Alpha  occ. eigenvalues --   -0.26333  -0.26208  -0.25291  -0.25126  -0.24761
 Alpha virt. eigenvalues --   -0.02021  -0.01863  -0.01167  -0.00654  -0.00185
 Alpha virt. eigenvalues --    0.01734   0.02930   0.03460   0.05007   0.05565
 Alpha virt. eigenvalues --    0.05620   0.05833   0.06158   0.06445   0.06945

  Beta  occ. eigenvalues --  -58.49271 -58.49136 -58.49063 -58.49044 -58.49015
  Beta  occ. eigenvalues --  -58.48907 -58.48761 -58.48721 -58.48649 -58.48528
  Beta  occ. eigenvalues --  -58.48427 -58.48390 -58.45537  -4.90576  -4.90446
  Beta  occ. eigenvalues --   -4.90274  -4.90152  -4.90110  -4.90023  -4.89983
  Beta  occ. eigenvalues --   -4.89966  -4.89779  -4.89641  -4.89520  -4.89517
  Beta  occ. eigenvalues --   -4.87642  -3.21863  -3.21787  -3.21744  -3.21589
  Beta  occ. eigenvalues --   -3.21559  -3.21467  -3.21452  -3.21401  -3.21398
  Beta  occ. eigenvalues --   -3.21390  -3.21359  -3.21323  -3.21299  -3.21279
  Beta  occ. eigenvalues --   -3.21245  -3.21197  -3.21124  -3.21116  -3.21056
  Beta  occ. eigenvalues --   -3.21032  -3.21025  -3.21013  -3.20991  -3.20981
  Beta  occ. eigenvalues --   -3.20979  -3.20978  -3.20883  -3.20876  -3.20827
  Beta  occ. eigenvalues --   -3.20820  -3.20808  -3.20782  -3.20728  -3.20695
  Beta  occ. eigenvalues --   -3.20599  -3.20480  -3.19050  -3.18983  -3.18871
  Beta  occ. eigenvalues --   -0.72579  -0.61373  -0.59604  -0.57554  -0.45638
  Beta  occ. eigenvalues --   -0.45064  -0.44250  -0.43438  -0.41039  -0.36748
  Beta  occ. eigenvalues --   -0.28117  -0.27962  -0.27716  -0.27292  -0.26498
  Beta  occ. eigenvalues --   -0.25692  -0.25516  -0.25213  -0.24254
  Beta virt. eigenvalues --   -0.03693  -0.01221  -0.00776  -0.00699  -0.00220
  Beta virt. eigenvalues --    0.01334   0.01565   0.03463   0.04129   0.04956
  Beta virt. eigenvalues --    0.05624   0.05947   0.06193   0.06995   0.07906

 Mulliken charges and spin densities:
               1          2
     1  Al  -0.008711  -0.036737
     2  Al  -0.049711  -0.289366
     3  Al  -0.045374  -0.534003
     4  Al  -0.040529   0.328650
     5  Al  -0.058861  -0.466091
     6  Al  -0.077662   0.593448
     7  Al  -0.075104   0.414865
     8  Al  -0.095344   0.353590
     9  Al  -0.019972   0.488689
    10  Al  -0.022739  -0.615628
    11  Al  -0.060845   0.349749
    12  Al  -0.024886   0.342148
    13  Al   0.579737   0.070685
 Sum of Mulliken charges =   0.00000   1.00000

 Dipole moment (field-independent basis, Debye):
    X=              0.2383    Y=             -0.3120    Z=             -0.2214  Tot=              0.4508
 Quadrupole moment (field-independent basis, Debye-Ang):
   XX=           -171.1666   YY=           -172.0339   ZZ=           -170.5603
   XY=             -0.1844   XZ=             -0.0726   YZ=              1.9569

 6.1198841\CCSD=-3146.0886717\CCSD(T)=-3146.2491739\S2=3.18868\S2-1=2.8
 Normal termination of Gaussian 09 at Tue Oct  4 09:48:06 2016.
