 Gaussian 09, Revision D.01,

 ------------------------
 # hf/6-31G* test scf=xqc
 ------------------------

 --------
 Al13-c-s
 --------
 Symbolic Z-matrix:
 Charge =  1 Multiplicity = 1

 SCF Done:  E(RHF) =  -3144.52297800     A.U. after   21 cycles
 Normal termination of Gaussian 09 at Sun Oct  2 18:30:05 2016.
 Gaussian 09:  ES64L-G09RevD.01 24-Apr-2013

 --------------------------------------------------------
 # CCSD(T,conver=5)/cc-pVTZ test geom=allcheck guess=read
 --------------------------------------------------------

 Structure from the checkpoint file:  "cc-Al13-c-s.chk"
 --------
 Al13-c-s
 --------
 Charge =  1 Multiplicity = 1

                         Standard orientation:
 ---------------------------------------------------------------------
 Center     Atomic      Atomic             Coordinates (Angstroms)
 Number     Number       Type             X           Y           Z
 ---------------------------------------------------------------------
      1         13           0        1.704291    2.070534   -1.272239
      2         13           0       -0.970293    2.101420    1.340459
      3         13           0        1.808579    1.465042    1.292944
      4         13           0        2.586001   -0.402148   -1.335742
      5         13           0       -2.336927   -0.340516    1.177203
      6         13           0       -0.000274   -0.082481    2.339036
      7         13           0        1.996909   -1.290163    1.126039
      8         13           0       -0.496978   -2.340987    1.077115
      9         13           0       -0.880076    2.546751   -1.250967
     10         13           0       -2.584150    0.548790   -1.318253
     11         13           0       -1.706087   -1.928961   -1.355995
     12         13           0        0.879609   -2.403119   -1.362091
     13         13           0       -0.000603    0.055838   -0.457508
 ---------------------------------------------------------------------

 SCF Done:  E(RHF) =  -3144.80087664     A.U. after   17 cycles
 E2 =    -0.1216753366D+01 EUMP2 =    -0.31460176300081D+04
 CCSD(T)= -0.31460434391D+04

 The electronic state is 1-A.
 Alpha  occ. eigenvalues --  -58.61513 -58.61477 -58.61389 -58.61348 -58.61334
 Alpha  occ. eigenvalues --  -58.61303 -58.61226 -58.61215 -58.61185 -58.61176
 Alpha  occ. eigenvalues --  -58.61132 -58.60357 -58.55287  -5.02632  -5.02588
 Alpha  occ. eigenvalues --   -5.02514  -5.02485  -5.02475  -5.02424  -5.02415
 Alpha  occ. eigenvalues --   -5.02401  -5.02385  -5.02307  -5.02263  -5.01859
 Alpha  occ. eigenvalues --   -4.97348  -3.33776  -3.33739  -3.33728  -3.33698
 Alpha  occ. eigenvalues --   -3.33685  -3.33667  -3.33665  -3.33642  -3.33641
 Alpha  occ. eigenvalues --   -3.33638  -3.33625  -3.33623  -3.33616  -3.33611
 Alpha  occ. eigenvalues --   -3.33605  -3.33586  -3.33565  -3.33564  -3.33560
 Alpha  occ. eigenvalues --   -3.33555  -3.33551  -3.33545  -3.33536  -3.33528
 Alpha  occ. eigenvalues --   -3.33522  -3.33515  -3.33505  -3.33498  -3.33481
 Alpha  occ. eigenvalues --   -3.33455  -3.33419  -3.33404  -3.33347  -3.33228
 Alpha  occ. eigenvalues --   -3.33153  -3.33152  -3.28733  -3.28732  -3.28727
 Alpha  occ. eigenvalues --   -0.83725  -0.72222  -0.72209  -0.69775  -0.57553
 Alpha  occ. eigenvalues --   -0.57367  -0.56875  -0.56812  -0.51959  -0.47335
 Alpha  occ. eigenvalues --   -0.40528  -0.40341  -0.40073  -0.38590  -0.37071
 Alpha  occ. eigenvalues --   -0.37040  -0.36669  -0.36659  -0.35668
 Alpha virt. eigenvalues --   -0.14171  -0.14065  -0.13692  -0.12668  -0.12511
 Alpha virt. eigenvalues --   -0.11124  -0.11025  -0.10635  -0.10073  -0.05679
 Alpha virt. eigenvalues --   -0.05296  -0.05105  -0.02804  -0.02791  -0.02623

 Mulliken charges:
               1
     1  Al   0.115243
     2  Al   0.073484
     3  Al   0.057836
     4  Al   0.104730
     5  Al   0.016503
     6  Al  -0.024255
     7  Al  -0.003464
     8  Al  -0.022973
     9  Al   0.114314
    10  Al   0.111205
    11  Al   0.088086
    12  Al   0.081644
    13  Al   0.287646
 Sum of Mulliken charges =   1.00000

 Dipole moment (field-independent basis, Debye):
    X=              0.0040    Y=             -0.5411    Z=              1.4289  Tot=              1.5279
 Quadrupole moment (field-independent basis, Debye-Ang):
   XX=           -136.8113   YY=           -136.2753   ZZ=           -140.6785
   XY=             -0.0240   XZ=             -0.0016   YZ=             -1.8241

 938795\MP4SDQ=-3145.9630545\CCSD=-3145.8899125\CCSD(T)=-3146.0434391\R
 Normal termination of Gaussian 09 at Mon Oct  3 02:33:53 2016.
