 Gaussian 09, Revision D.01,

 ------------------------
 # hf/6-31G* test scf=xqc
 ------------------------

 --------
 Al13-a-s
 --------
 Symbolic Z-matrix:
 Charge = -1 Multiplicity = 1

 SCF Done:  E(RHF) =  -3144.75792356     A.U. after   12 cycles
 Normal termination of Gaussian 09 at Sun Oct  2 18:26:32 2016.
 Gaussian 09:  ES64L-G09RevD.01 24-Apr-2013

 --------------------------------------------------------
 # CCSD(T,conver=5)/cc-pVTZ test geom=allcheck guess=read
 --------------------------------------------------------

 Structure from the checkpoint file:  "cc-Al13-a-s.chk"
 --------
 Al13-a-s
 --------
 Charge = -1 Multiplicity = 1

                         Standard orientation:
 ---------------------------------------------------------------------
 Center     Atomic      Atomic             Coordinates (Angstroms)
 Number     Number       Type             X           Y           Z
 ---------------------------------------------------------------------
      1         13           0        0.000933   -0.001419   -2.684111
      2         13           0        0.376835    2.370415   -1.201494
      3         13           0        2.371739    0.374066   -1.199744
      4         13           0        1.089558   -2.140105   -1.198861
      5         13           0       -1.089560    2.140107    1.198860
      6         13           0        1.697780    1.697602    1.200064
      7         13           0        2.138267   -1.090053    1.201691
      8         13           0       -0.000934    0.001419    2.684114
      9         13           0       -1.697778   -1.697602   -1.200065
     10         13           0       -2.138266    1.090053   -1.201691
     11         13           0       -2.371741   -0.374068    1.199744
     12         13           0       -0.376834   -2.370416    1.201493
     13         13           0        0.000000    0.000000    0.000001
 ---------------------------------------------------------------------

 SCF Done:  E(RHF) =  -3145.04040662     A.U. after   10 cycles
 E2 =    -0.1424257562D+01 EUMP2 =    -0.31464646641825D+04
 CCSD(T)= -0.31463990512D+04

 The electronic state is 1-A.
 Alpha  occ. eigenvalues --  -58.36547 -58.36547 -58.36547 -58.36547 -58.36547
 Alpha  occ. eigenvalues --  -58.36547 -58.36547 -58.36547 -58.36547 -58.36547
 Alpha  occ. eigenvalues --  -58.36547 -58.36547 -58.30985  -4.77724  -4.77718
 Alpha  occ. eigenvalues --   -4.77718  -4.77718  -4.77712  -4.77712  -4.77712
 Alpha  occ. eigenvalues --   -4.77712  -4.77712  -4.77709  -4.77709  -4.77709
 Alpha  occ. eigenvalues --   -4.73641  -3.08887  -3.08875  -3.08875  -3.08875
 Alpha  occ. eigenvalues --   -3.08855  -3.08855  -3.08855  -3.08855  -3.08855
 Alpha  occ. eigenvalues --   -3.08846  -3.08846  -3.08846  -3.08792  -3.08792
 Alpha  occ. eigenvalues --   -3.08792  -3.08792  -3.08783  -3.08783  -3.08783
 Alpha  occ. eigenvalues --   -3.08783  -3.08783  -3.08765  -3.08765  -3.08765
 Alpha  occ. eigenvalues --   -3.08765  -3.08757  -3.08757  -3.08757  -3.08754
 Alpha  occ. eigenvalues --   -3.08754  -3.08754  -3.08754  -3.08754  -3.08743
 Alpha  occ. eigenvalues --   -3.08743  -3.08743  -3.05037  -3.05037  -3.05037
 Alpha  occ. eigenvalues --   -0.61759  -0.48360  -0.48360  -0.48360  -0.31691
 Alpha  occ. eigenvalues --   -0.31691  -0.31691  -0.31691  -0.31691  -0.27659
 Alpha  occ. eigenvalues --   -0.13458  -0.13458  -0.13458  -0.13374  -0.13374
 Alpha  occ. eigenvalues --   -0.13374  -0.12869  -0.12869  -0.12869  -0.12869
 Alpha virt. eigenvalues --    0.09028   0.09028   0.09028   0.09028   0.09028
 Alpha virt. eigenvalues --    0.15767   0.15767   0.15767   0.15767   0.16129
 Alpha virt. eigenvalues --    0.17403   0.17403   0.17403   0.17403   0.17403

 Mulliken charges:
               1
     1  Al  -0.176506
     2  Al  -0.176505
     3  Al  -0.176505
     4  Al  -0.176505
     5  Al  -0.176504
     6  Al  -0.176505
     7  Al  -0.176505
     8  Al  -0.176504
     9  Al  -0.176505
    10  Al  -0.176505
    11  Al  -0.176505
    12  Al  -0.176505
    13  Al   1.118060
 Sum of Mulliken charges =  -1.00000

 Dipole moment (field-independent basis, Debye):
    X=              0.0000    Y=              0.0000    Z=              0.0000  Tot=              0.0000
 Quadrupole moment (field-independent basis, Debye-Ang):
   XX=           -201.6355   YY=           -201.6356   ZZ=           -201.6356
   XY=              0.0000   XZ=              0.0000   YZ=              0.0000

 4DQ=-3146.4270262\MP4SDQ=-3146.4392419\CCSD=-3146.2172756\CCSD(T)=-314
 Normal termination of Gaussian 09 at Mon Oct  3 06:09:56 2016.
