 Gaussian 09, Revision D.01,

 ------------------------
 # hf/6-31G* test scf=xqc
 ------------------------

 --------
 Al14-c-d
 --------
 Symbolic Z-matrix:
 Charge =  1 Multiplicity = 2

 SCF Done:  E(UHF) =  -3386.42940093     A.U. after   65 cycles
 SCF Done:  E(UHF) =  -3386.42940093     a.u. after    1 cycles
 Normal termination of Gaussian 09 at Mon Oct  3 12:22:18 2016.
 Gaussian 09:  ES64L-G09RevD.01 24-Apr-2013

 --------------------------------------------------------
 # CCSD(T,conver=5)/cc-pVTZ test geom=allcheck guess=read
 --------------------------------------------------------

 Structure from the checkpoint file:  "cc-Al14-c-d.chk"
 --------
 Al14-c-d
 --------
 Charge =  1 Multiplicity = 2

                         Standard orientation:
 ---------------------------------------------------------------------
 Center     Atomic      Atomic             Coordinates (Angstroms)
 Number     Number       Type             X           Y           Z
 ---------------------------------------------------------------------
      1         13           0       -1.007256   -0.866995    2.505617
      2         13           0       -2.826028   -0.453676    0.035608
      3         13           0       -0.830976   -2.533193    0.472480
      4         13           0        1.492179   -1.428378    1.640281
      5         13           0       -1.597558    0.821703   -2.239628
      6         13           0       -0.999818   -1.698215   -2.033172
      7         13           0        1.479160   -1.940954   -1.007219
      8         13           0        1.121549    0.389022   -2.347810
      9         13           0       -1.683706    1.524795    1.756596
     10         13           0       -0.932921    2.692493   -0.493604
     11         13           0        1.676261    2.189588   -0.373484
     12         13           0        3.193536    0.020865    0.004435
     13         13           0       -0.130555    0.067496   -0.012643
     14         13           0        1.046133    1.215448    2.092543
 ---------------------------------------------------------------------

 SCF Done:  E(UHF) =  -3386.73179704     A.U. after   52 cycles
 E2 =    -0.1347062456D+01 EUMP2 =    -0.33880788594989D+04
 CCSD(T)= -0.33880877278D+04

 The electronic state is 2-A.
 Alpha  occ. eigenvalues --  -58.61670 -58.61531 -58.61529 -58.61494 -58.61490
 Alpha  occ. eigenvalues --  -58.61467 -58.61407 -58.61407 -58.61399 -58.61355
 Alpha  occ. eigenvalues --  -58.61144 -58.61109 -58.61040 -58.55542  -5.02895
 Alpha  occ. eigenvalues --   -5.02711  -5.02705  -5.02636  -5.02633  -5.02629
 Alpha  occ. eigenvalues --   -5.02616  -5.02601  -5.02503  -5.02467  -5.02293
 Alpha  occ. eigenvalues --   -5.02263  -5.02238  -4.97775  -3.34116  -3.34014
 Alpha  occ. eigenvalues --   -3.34009  -3.33973  -3.33952  -3.33898  -3.33877
 Alpha  occ. eigenvalues --   -3.33861  -3.33836  -3.33828  -3.33793  -3.33783
 Alpha  occ. eigenvalues --   -3.33782  -3.33762  -3.33755  -3.33750  -3.33735
 Alpha  occ. eigenvalues --   -3.33717  -3.33714  -3.33703  -3.33700  -3.33677
 Alpha  occ. eigenvalues --   -3.33654  -3.33631  -3.33580  -3.33575  -3.33532
 Alpha  occ. eigenvalues --   -3.33468  -3.33455  -3.33436  -3.33407  -3.33404
 Alpha  occ. eigenvalues --   -3.33383  -3.33381  -3.33373  -3.33372  -3.33348
 Alpha  occ. eigenvalues --   -3.33275  -3.33237  -3.29191  -3.29173  -3.29114
 Alpha  occ. eigenvalues --   -0.84913  -0.73291  -0.72799  -0.72375  -0.58572
 Alpha  occ. eigenvalues --   -0.57912  -0.57756  -0.57489  -0.56611  -0.52578
 Alpha  occ. eigenvalues --   -0.45727  -0.40327  -0.40212  -0.39518  -0.39205
 Alpha  occ. eigenvalues --   -0.38888  -0.38585  -0.37523  -0.37072  -0.36914
 Alpha  occ. eigenvalues --   -0.34514
 Alpha virt. eigenvalues --   -0.13909  -0.13882  -0.13444  -0.13376  -0.12183
 Alpha virt. eigenvalues --   -0.11628  -0.11269  -0.10634  -0.07876  -0.07296
 Alpha virt. eigenvalues --   -0.06864  -0.05661  -0.05337  -0.05252  -0.02991

  Beta  occ. eigenvalues --  -58.61613 -58.61538 -58.61499 -58.61496 -58.61469
  Beta  occ. eigenvalues --  -58.61297 -58.61275 -58.61273 -58.61254 -58.61230
  Beta  occ. eigenvalues --  -58.61227 -58.61073 -58.61067 -58.55574  -5.02789
  Beta  occ. eigenvalues --   -5.02665  -5.02658  -5.02631  -5.02628  -5.02479
  Beta  occ. eigenvalues --   -5.02477  -5.02470  -5.02463  -5.02329  -5.02273
  Beta  occ. eigenvalues --   -5.02076  -5.01938  -4.97822  -3.34033  -3.33954
  Beta  occ. eigenvalues --   -3.33904  -3.33864  -3.33839  -3.33795  -3.33783
  Beta  occ. eigenvalues --   -3.33771  -3.33761  -3.33750  -3.33743  -3.33731
  Beta  occ. eigenvalues --   -3.33730  -3.33706  -3.33688  -3.33686  -3.33669
  Beta  occ. eigenvalues --   -3.33647  -3.33614  -3.33611  -3.33597  -3.33588
  Beta  occ. eigenvalues --   -3.33587  -3.33576  -3.33570  -3.33542  -3.33511
  Beta  occ. eigenvalues --   -3.33506  -3.33483  -3.33425  -3.33416  -3.33370
  Beta  occ. eigenvalues --   -3.33355  -3.33345  -3.33328  -3.33184  -3.33131
  Beta  occ. eigenvalues --   -3.32925  -3.32801  -3.29239  -3.29212  -3.29201
  Beta  occ. eigenvalues --   -0.84791  -0.73319  -0.72510  -0.72067  -0.57968
  Beta  occ. eigenvalues --   -0.57780  -0.57060  -0.56516  -0.56473  -0.52374
  Beta  occ. eigenvalues --   -0.40265  -0.39923  -0.39800  -0.38886  -0.38839
  Beta  occ. eigenvalues --   -0.38581  -0.38088  -0.37386  -0.37048  -0.36080
  Beta virt. eigenvalues --   -0.13981  -0.13975  -0.12997  -0.12668  -0.12364
  Beta virt. eigenvalues --   -0.11644  -0.11589  -0.11259  -0.10797  -0.07716
  Beta virt. eigenvalues --   -0.06650  -0.06435  -0.05478  -0.05252  -0.05101

 Mulliken charges and spin densities:
               1          2
     1  Al   0.043333  -0.007203
     2  Al   0.074949   0.425321
     3  Al  -0.012965   0.066514
     4  Al  -0.035669   0.189021
     5  Al   0.030912  -0.210742
     6  Al   0.038191  -0.007761
     7  Al  -0.036370   0.197277
     8  Al   0.014143   0.020080
     9  Al   0.026795  -0.235053
    10  Al   0.147331   0.160346
    11  Al   0.027393  -0.088259
    12  Al   0.154022   0.422897
    13  Al   0.509980   0.054274
    14  Al   0.017956   0.013288
 Sum of Mulliken charges =   1.00000   1.00000

 Dipole moment (field-independent basis, Debye):
    X=              0.1274    Y=             -0.8883    Z=              0.1673  Tot=              0.9128
 Quadrupole moment (field-independent basis, Debye-Ang):
   XX=           -157.5303   YY=           -148.4193   ZZ=           -149.7593
   XY=             -1.6230   XZ=              0.1342   YZ=             -0.2980

 CCSD(T)=-3388.0877278\S2=1.162716\S2-1=1.04714\S2A=0.918386\RMSD=8.831
 Normal termination of Gaussian 09 at Wed Oct  5 10:58:41 2016.
