 Gaussian 09, Revision D.01,

 ------------------------
 # hf/6-31G* test scf=xqc
 ------------------------

 --------
 Al14-n-s
 --------
 Symbolic Z-matrix:
 Charge =  0 Multiplicity = 1

 SCF Done:  E(RHF) =  -3386.59853984     A.U. after   19 cycles
 Normal termination of Gaussian 09 at Mon Oct  3 04:23:46 2016.
 Gaussian 09:  ES64L-G09RevD.01 24-Apr-2013

 --------------------------------------------------------
 # CCSD(T,conver=5)/cc-pVTZ test geom=allcheck guess=read
 --------------------------------------------------------

 Structure from the checkpoint file:  "cc-Al14-n-s.chk"
 --------
 Al14-n-s
 --------
 Charge =  0 Multiplicity = 1

                         Standard orientation:
 ---------------------------------------------------------------------
 Center     Atomic      Atomic             Coordinates (Angstroms)
 Number     Number       Type             X           Y           Z
 ---------------------------------------------------------------------
      1         13           0       -0.685793    1.764801    1.665662
      2         13           0        2.204076    1.374364   -1.216694
      3         13           0        0.000000    2.695183   -0.786873
      4         13           0        1.807612    0.835040    1.524184
      5         13           0        2.440723   -1.206407   -0.360844
      6         13           0        0.685793   -1.764801    1.665662
      7         13           0        0.000000   -2.695183   -0.786873
      8         13           0       -1.807612   -0.835040    1.524184
      9         13           0        0.998082   -0.815657   -2.636874
     10         13           0       -2.204076   -1.374364   -1.216694
     11         13           0       -2.440723    1.206407   -0.360844
     12         13           0       -0.998082    0.815657   -2.636874
     13         13           0        0.000000    0.000000    3.917740
     14         13           0        0.000000    0.000000   -0.294863
 ---------------------------------------------------------------------

 SCF Done:  E(RHF) =  -3386.90273702     A.U. after   16 cycles
 E2 =    -0.1414857819D+01 EUMP2 =    -0.33883175948354D+04
 CCSD(T)= -0.33883021394D+04

 The electronic state is 1-A.
 Alpha  occ. eigenvalues --  -58.49760 -58.49760 -58.49327 -58.49327 -58.49146
 Alpha  occ. eigenvalues --  -58.48959 -58.48959 -58.48743 -58.48743 -58.48530
 Alpha  occ. eigenvalues --  -58.48530 -58.48364 -58.48364 -58.42950  -4.90882
 Alpha  occ. eigenvalues --   -4.90882  -4.90494  -4.90484  -4.90114  -4.90114
 Alpha  occ. eigenvalues --   -4.90068  -4.89922  -4.89922  -4.89714  -4.89713
 Alpha  occ. eigenvalues --   -4.89650  -4.89650  -4.85414  -3.22042  -3.22042
 Alpha  occ. eigenvalues --   -3.21956  -3.21956  -3.21934  -3.21934  -3.21737
 Alpha  occ. eigenvalues --   -3.21700  -3.21646  -3.21638  -3.21609  -3.21561
 Alpha  occ. eigenvalues --   -3.21290  -3.21290  -3.21197  -3.21197  -3.21178
 Alpha  occ. eigenvalues --   -3.21177  -3.21064  -3.21064  -3.20988  -3.20988
 Alpha  occ. eigenvalues --   -3.20960  -3.20960  -3.20885  -3.20876  -3.20873
 Alpha  occ. eigenvalues --   -3.20868  -3.20859  -3.20857  -3.20848  -3.20815
 Alpha  occ. eigenvalues --   -3.20801  -3.20785  -3.20774  -3.20761  -3.20756
 Alpha  occ. eigenvalues --   -3.20749  -3.20745  -3.16821  -3.16807  -3.16795
 Alpha  occ. eigenvalues --   -0.73001  -0.61461  -0.60444  -0.59358  -0.47505
 Alpha  occ. eigenvalues --   -0.45118  -0.45050  -0.43958  -0.43393  -0.40944
 Alpha  occ. eigenvalues --   -0.33871  -0.27735  -0.26800  -0.26380  -0.26320
 Alpha  occ. eigenvalues --   -0.26062  -0.25989  -0.25354  -0.24823  -0.24617
 Alpha  occ. eigenvalues --   -0.22395
 Alpha virt. eigenvalues --   -0.03411  -0.02818  -0.01960  -0.01297  -0.01236
 Alpha virt. eigenvalues --    0.01314   0.01357   0.01971   0.03446   0.04467
 Alpha virt. eigenvalues --    0.04577   0.05294   0.05534   0.05820   0.06750

 Mulliken charges:
               1
     1  Al  -0.126285
     2  Al  -0.046228
     3  Al  -0.036424
     4  Al  -0.085793
     5  Al  -0.073620
     6  Al  -0.126285
     7  Al  -0.036424
     8  Al  -0.085793
     9  Al  -0.063915
    10  Al  -0.046228
    11  Al  -0.073620
    12  Al  -0.063915
    13  Al   0.097023
    14  Al   0.767508
 Sum of Mulliken charges =   0.00000

 Dipole moment (field-independent basis, Debye):
    X=              0.0000    Y=              0.0000    Z=             -1.5451  Tot=              1.5451
 Quadrupole moment (field-independent basis, Debye-Ang):
   XX=           -180.4326   YY=           -182.3059   ZZ=           -190.9136
   XY=             -3.5202   XZ=              0.0000   YZ=              0.0000

 .2502256\MP4SDQ=-3388.2720186\CCSD=-3388.1222284\CCSD(T)=-3388.3021394
 Normal termination of Gaussian 09 at Mon Oct  3 08:42:12 2016.
