 Gaussian 09, Revision D.01,

 ------------------------
 # hf/6-31G* test scf=xqc
 ------------------------

 --------
 Al15-n-d
 --------
 Symbolic Z-matrix:
 Charge =  0 Multiplicity = 2

 SCF Done:  E(UHF) =  -3628.50122233     A.U. after   65 cycles
 SCF Done:  E(UHF) =  -3628.50510770     a.u. after   17 cycles
 Normal termination of Gaussian 09 at Sat Oct  1 15:40:40 2016.
 Gaussian 09:  ES64L-G09RevD.01 24-Apr-2013

 --------------------------------------------------------
 # CCSD(T,conver=5)/cc-pVTZ test geom=allcheck guess=read
 --------------------------------------------------------

 Structure from the checkpoint file:  "cc-Al15-n-d.chk"
 --------
 Al15-n-d
 --------
 Charge =  0 Multiplicity = 2

                         Standard orientation:
 ---------------------------------------------------------------------
 Center     Atomic      Atomic             Coordinates (Angstroms)
 Number     Number       Type             X           Y           Z
 ---------------------------------------------------------------------
      1         13           0       -1.227934   -1.841137    1.689917
      2         13           0        1.227934    1.841137    1.689917
      3         13           0       -1.227934    0.770148    2.278334
      4         13           0        1.227934   -0.770148    2.278334
      5         13           0        2.692737    0.084001    0.000000
      6         13           0        1.373552   -2.342987    0.000000
      7         13           0        1.227934   -0.770148   -2.278334
      8         13           0       -1.227934   -1.841137   -1.689917
      9         13           0        1.227934    1.841137   -1.689917
     10         13           0       -1.227934    0.770148   -2.278334
     11         13           0       -2.692737   -0.084001    0.000000
     12         13           0       -1.373552    2.342987    0.000000
     13         13           0       -0.985491   -3.801784    0.000000
     14         13           0        0.985491    3.801784    0.000000
     15         13           0        0.000000    0.000000    0.000000
 ---------------------------------------------------------------------

 SCF Done:  E(UHF) =  -3628.82887560     A.U. after   28 cycles
 E2 =    -0.1429605847D+01 EUMP2 =    -0.36302584814495D+04
 CCSD(T)= -0.36303260639D+04

 The electronic state is 2-AG.
 Alpha  occ. eigenvalues --  -58.48675 -58.48675 -58.48675 -58.48675 -58.48593
 Alpha  occ. eigenvalues --  -58.48593 -58.48576 -58.48576 -58.48576 -58.48576
 Alpha  occ. eigenvalues --  -58.48135 -58.48135 -58.48074 -58.48074 -58.45345
 Alpha  occ. eigenvalues --   -4.89913  -4.89912  -4.89911  -4.89911  -4.89845
 Alpha  occ. eigenvalues --   -4.89845  -4.89824  -4.89824  -4.89821  -4.89821
 Alpha  occ. eigenvalues --   -4.89340  -4.89340  -4.89213  -4.89213  -4.87519
 Alpha  occ. eigenvalues --   -3.21200  -3.21200  -3.21142  -3.21142  -3.21127
 Alpha  occ. eigenvalues --   -3.21127  -3.21100  -3.21098  -3.21098  -3.21097
 Alpha  occ. eigenvalues --   -3.21053  -3.21052  -3.21051  -3.21050  -3.21037
 Alpha  occ. eigenvalues --   -3.21036  -3.21007  -3.21004  -3.20997  -3.20993
 Alpha  occ. eigenvalues --   -3.20945  -3.20944  -3.20940  -3.20939  -3.20902
 Alpha  occ. eigenvalues --   -3.20902  -3.20892  -3.20892  -3.20773  -3.20772
 Alpha  occ. eigenvalues --   -3.20549  -3.20549  -3.20513  -3.20512  -3.20467
 Alpha  occ. eigenvalues --   -3.20467  -3.20395  -3.20395  -3.20323  -3.20322
 Alpha  occ. eigenvalues --   -3.20300  -3.20299  -3.18934  -3.18917  -3.18530
 Alpha  occ. eigenvalues --   -0.73068  -0.61913  -0.61373  -0.60695  -0.53178
 Alpha  occ. eigenvalues --   -0.46558  -0.45437  -0.44768  -0.43385  -0.42124
 Alpha  occ. eigenvalues --   -0.39477  -0.32684  -0.30565  -0.28402  -0.27135
 Alpha  occ. eigenvalues --   -0.26662  -0.26464  -0.25986  -0.25654  -0.25111
 Alpha  occ. eigenvalues --   -0.24384  -0.23698  -0.21869
 Alpha virt. eigenvalues --   -0.05443  -0.02317  -0.02295  -0.01483   0.01156
 Alpha virt. eigenvalues --    0.01815   0.02075   0.02528   0.04971   0.05062
 Alpha virt. eigenvalues --    0.05351   0.05381   0.05443   0.05784   0.06158

  Beta  occ. eigenvalues --  -58.48666 -58.48666 -58.48666 -58.48666 -58.48550
  Beta  occ. eigenvalues --  -58.48550 -58.48550 -58.48550 -58.48233 -58.48233
  Beta  occ. eigenvalues --  -58.48149 -58.48149 -58.48133 -58.48133 -58.45456
  Beta  occ. eigenvalues --   -4.89877  -4.89877  -4.89876  -4.89876  -4.89792
  Beta  occ. eigenvalues --   -4.89792  -4.89789  -4.89789  -4.89532  -4.89532
  Beta  occ. eigenvalues --   -4.89312  -4.89312  -4.89060  -4.89060  -4.87646
  Beta  occ. eigenvalues --   -3.21219  -3.21219  -3.21217  -3.21217  -3.21109
  Beta  occ. eigenvalues --   -3.21109  -3.21108  -3.21108  -3.20995  -3.20995
  Beta  occ. eigenvalues --   -3.20989  -3.20988  -3.20970  -3.20969  -3.20968
  Beta  occ. eigenvalues --   -3.20968  -3.20892  -3.20892  -3.20881  -3.20881
  Beta  occ. eigenvalues --   -3.20829  -3.20827  -3.20827  -3.20822  -3.20814
  Beta  occ. eigenvalues --   -3.20813  -3.20608  -3.20607  -3.20490  -3.20490
  Beta  occ. eigenvalues --   -3.20459  -3.20458  -3.20450  -3.20450  -3.20420
  Beta  occ. eigenvalues --   -3.20420  -3.20384  -3.20384  -3.20293  -3.20293
  Beta  occ. eigenvalues --   -3.20177  -3.20177  -3.19292  -3.18978  -3.18968
  Beta  occ. eigenvalues --   -0.73769  -0.61608  -0.61074  -0.60712  -0.49261
  Beta  occ. eigenvalues --   -0.46689  -0.45948  -0.44352  -0.43755  -0.41007
  Beta  occ. eigenvalues --   -0.38348  -0.32469  -0.30815  -0.26967  -0.26415
  Beta  occ. eigenvalues --   -0.26298  -0.25945  -0.25629  -0.25033  -0.24579
  Beta  occ. eigenvalues --   -0.23590  -0.21942
  Beta virt. eigenvalues --   -0.03905  -0.02436  -0.02291  -0.01939   0.00767
  Beta virt. eigenvalues --    0.01609   0.01743   0.02170   0.03103   0.04933
  Beta virt. eigenvalues --    0.05132   0.05242   0.05268   0.05786   0.06741

 Mulliken charges and spin densities:
               1          2
     1  Al  -0.057007  -0.031635
     2  Al  -0.057007  -0.031635
     3  Al  -0.090912   0.060344
     4  Al  -0.090912   0.060344
     5  Al  -0.086327  -0.027669
     6  Al  -0.073630  -0.214656
     7  Al  -0.090912   0.060344
     8  Al  -0.057007  -0.031635
     9  Al  -0.057007  -0.031635
    10  Al  -0.090912   0.060344
    11  Al  -0.086327  -0.027669
    12  Al  -0.073630  -0.214656
    13  Al   0.091775   0.818652
    14  Al   0.091775   0.818652
    15  Al   0.728044  -0.267491
 Sum of Mulliken charges =   0.00000   1.00000

 Dipole moment (field-independent basis, Debye):
    X=              0.0000    Y=              0.0000    Z=              0.0000  Tot=              0.0000
 Quadrupole moment (field-independent basis, Debye-Ang):
   XX=           -197.4903   YY=           -198.7520   ZZ=           -189.6531
   XY=              0.4346   XZ=              0.0000   YZ=              0.0000

 .0276325\MP4SDQ=-3630.2150692\CCSD=-3630.1287982\CCSD(T)=-3630.3260639
 Normal termination of Gaussian 09 at Sun Oct  2 03:17:56 2016.
