 Gaussian 09, Revision D.01,

 ------------------------
 # hf/6-31G* test scf=xqc
 ------------------------

 --------
 Al15-c-s
 --------
 Symbolic Z-matrix:
 Charge =  1 Multiplicity = 1

 SCF Done:  E(RHF) =  -3628.32584179     A.U. after   19 cycles
 Normal termination of Gaussian 09 at Mon Oct  3 06:44:59 2016.
 Gaussian 09:  ES64L-G09RevD.01 24-Apr-2013

 --------------------------------------------------------
 # CCSD(T,conver=5)/cc-pVTZ test geom=allcheck guess=read
 --------------------------------------------------------

 Structure from the checkpoint file:  "cc-Al15-c-s.chk"
 --------
 Al15-c-s
 --------
 Charge =  1 Multiplicity = 1

                         Standard orientation:
 ---------------------------------------------------------------------
 Center     Atomic      Atomic             Coordinates (Angstroms)
 Number     Number       Type             X           Y           Z
 ---------------------------------------------------------------------
      1         13           0        0.000000    1.854156   -2.104041
      2         13           0        0.000000    1.739314    2.111253
      3         13           0        1.569198    2.265656    0.005650
      4         13           0       -1.569198    2.265656    0.005650
      5         13           0       -2.286589    0.000000    1.387079
      6         13           0       -2.271678    0.000000   -1.459278
      7         13           0       -1.569198   -2.265656    0.005650
      8         13           0        0.000000   -1.854156   -2.104041
      9         13           0        0.000000   -1.739314    2.111253
     10         13           0        1.569198   -2.265656    0.005650
     11         13           0        2.271678    0.000000   -1.459278
     12         13           0        2.286589    0.000000    1.387079
     13         13           0        0.000000    0.000000   -3.852806
     14         13           0        0.000000    0.000000    4.020973
     15         13           0        0.000000    0.000000   -0.060793
 ---------------------------------------------------------------------

 SCF Done:  E(RHF) =  -3628.64885504     A.U. after   16 cycles
 E2 =    -0.1483164692D+01 EUMP2 =    -0.36301320197339D+04
 CCSD(T)= -0.36301180702D+04

 The electronic state is 1-A1.
 Alpha  occ. eigenvalues --  -58.61421 -58.61282 -58.60793 -58.60793 -58.60610
 Alpha  occ. eigenvalues --  -58.60610 -58.60552 -58.60552 -58.60552 -58.60552
 Alpha  occ. eigenvalues --  -58.60244 -58.60244 -58.60232 -58.60232 -58.55355
 Alpha  occ. eigenvalues --   -5.02533  -5.02367  -5.02011  -5.02011  -5.01829
 Alpha  occ. eigenvalues --   -5.01828  -5.01727  -5.01727  -5.01725  -5.01725
 Alpha  occ. eigenvalues --   -5.01340  -5.01340  -5.01336  -5.01336  -4.97627
 Alpha  occ. eigenvalues --   -3.33598  -3.33564  -3.33454  -3.33365  -3.33346
 Alpha  occ. eigenvalues --   -3.33258  -3.33258  -3.33231  -3.33209  -3.33208
 Alpha  occ. eigenvalues --   -3.33172  -3.33169  -3.33060  -3.33057  -3.33019
 Alpha  occ. eigenvalues --   -3.33019  -3.32988  -3.32987  -3.32903  -3.32903
 Alpha  occ. eigenvalues --   -3.32903  -3.32902  -3.32814  -3.32814  -3.32809
 Alpha  occ. eigenvalues --   -3.32809  -3.32798  -3.32798  -3.32798  -3.32797
 Alpha  occ. eigenvalues --   -3.32497  -3.32497  -3.32467  -3.32466  -3.32404
 Alpha  occ. eigenvalues --   -3.32403  -3.32400  -3.32400  -3.32381  -3.32381
 Alpha  occ. eigenvalues --   -3.32367  -3.32367  -3.29002  -3.28988  -3.28970
 Alpha  occ. eigenvalues --   -0.84556  -0.72976  -0.72491  -0.72245  -0.62545
 Alpha  occ. eigenvalues --   -0.58479  -0.57015  -0.56089  -0.54808  -0.51919
 Alpha  occ. eigenvalues --   -0.51622  -0.45118  -0.39085  -0.38496  -0.38335
 Alpha  occ. eigenvalues --   -0.37333  -0.37238  -0.36805  -0.36292  -0.35831
 Alpha  occ. eigenvalues --   -0.35382  -0.35216
 Alpha virt. eigenvalues --   -0.14473  -0.13885  -0.13637  -0.13261  -0.12859
 Alpha virt. eigenvalues --   -0.12266  -0.10940  -0.09416  -0.07354  -0.06467
 Alpha virt. eigenvalues --   -0.06130  -0.05736  -0.05190  -0.04937  -0.04110

 Mulliken charges:
               1
     1  Al   0.045398
     2  Al   0.005618
     3  Al   0.001891
     4  Al   0.001891
     5  Al  -0.029777
     6  Al  -0.032853
     7  Al   0.001891
     8  Al   0.045398
     9  Al   0.005618
    10  Al   0.001891
    11  Al  -0.032853
    12  Al  -0.029777
    13  Al   0.188884
    14  Al   0.217050
    15  Al   0.609730
 Sum of Mulliken charges =   1.00000

 Dipole moment (field-independent basis, Debye):
    X=              0.0000    Y=              0.0000    Z=             -0.0586  Tot=              0.0586
 Quadrupole moment (field-independent basis, Debye-Ang):
   XX=           -174.7917   YY=           -163.8296   ZZ=           -142.1658
   XY=              0.0000   XZ=              0.0000   YZ=              0.0000

 629.9288142\CCSD(T)=-3630.1180702\RMSD=5.955e-09\PG=C02V [C2(Al1Al1Al1
 Normal termination of Gaussian 09 at Mon Oct  3 11:31:55 2016.
