 Gaussian 09, Revision D.01,

 ------------------------
 # hf/6-31G* test scf=xqc
 ------------------------

 --------
 Al16-c-d
 --------
 Symbolic Z-matrix:
 Charge =  1 Multiplicity = 2

 SCF Done:  E(UHF) =  -3870.25915818     A.U. after   65 cycles
 SCF Done:  E(UHF) =  -3870.25915818     a.u. after    2 cycles
 Normal termination of Gaussian 09 at Mon Oct  3 04:42:43 2016.
 Gaussian 09:  ES64L-G09RevD.01 24-Apr-2013

 --------------------------------------------------------
 # CCSD(T,conver=5)/cc-pVTZ test geom=allcheck guess=read
 --------------------------------------------------------

 Structure from the checkpoint file:  "cc-Al16-c-d.chk"
 --------
 Al16-c-d
 --------
 Charge =  1 Multiplicity = 2

                         Standard orientation:
 ---------------------------------------------------------------------
 Center     Atomic      Atomic             Coordinates (Angstroms)
 Number     Number       Type             X           Y           Z
 ---------------------------------------------------------------------
      1         13           0        1.530418   -2.009970    0.000000
      2         13           0       -0.859868   -1.640395    1.582664
      3         13           0        2.878313    0.372020    0.000000
      4         13           0       -2.481002   -0.006784    0.000000
      5         13           0       -1.089029    0.957224    2.267744
      6         13           0        1.424635   -0.499443   -2.296922
      7         13           0        1.424635   -0.499443    2.296922
      8         13           0       -0.859868   -1.640395   -1.582664
      9         13           0        1.424635    2.091493   -1.899200
     10         13           0       -1.631593    2.521536    0.000000
     11         13           0       -1.089029    0.957224   -2.267744
     12         13           0        1.424635    2.091493    1.899200
     13         13           0       -0.328870   -3.975443    0.000000
     14         13           0        0.714289    3.679022    0.000000
     15         13           0       -2.708203   -2.893413    0.000000
     16         13           0        0.225902    0.495273    0.000000
 ---------------------------------------------------------------------

 SCF Done:  E(UHF) =  -3870.60296743     A.U. after   50 cycles
 E2 =    -0.1506516227D+01 EUMP2 =    -0.38721094836563D+04
 CCSD(T)= -0.38721427939D+04

 The electronic state is 2-A'.
 Alpha  occ. eigenvalues --  -58.61231 -58.61087 -58.61011 -58.60947 -58.60602
 Alpha  occ. eigenvalues --  -58.60586 -58.60586 -58.60552 -58.60194 -58.60194
 Alpha  occ. eigenvalues --  -58.59845 -58.59845 -58.59828 -58.59828 -58.59491
 Alpha  occ. eigenvalues --  -58.55452  -5.02306  -5.02253  -5.02239  -5.02099
 Alpha  occ. eigenvalues --   -5.01782  -5.01747  -5.01747  -5.01642  -5.01403
 Alpha  occ. eigenvalues --   -5.01403  -5.01129  -5.01127  -5.01064  -5.01063
 Alpha  occ. eigenvalues --   -5.00628  -4.97639  -3.33611  -3.33559  -3.33536
 Alpha  occ. eigenvalues --   -3.33403  -3.33376  -3.33333  -3.33325  -3.33324
 Alpha  occ. eigenvalues --   -3.33253  -3.33249  -3.33233  -3.33151  -3.33051
 Alpha  occ. eigenvalues --   -3.32997  -3.32997  -3.32996  -3.32959  -3.32914
 Alpha  occ. eigenvalues --   -3.32914  -3.32897  -3.32855  -3.32847  -3.32847
 Alpha  occ. eigenvalues --   -3.32757  -3.32622  -3.32622  -3.32574  -3.32573
 Alpha  occ. eigenvalues --   -3.32513  -3.32512  -3.32433  -3.32430  -3.32394
 Alpha  occ. eigenvalues --   -3.32390  -3.32340  -3.32336  -3.32274  -3.32273
 Alpha  occ. eigenvalues --   -3.32146  -3.32146  -3.32134  -3.32133  -3.31703
 Alpha  occ. eigenvalues --   -3.31622  -3.31549  -3.29106  -3.29034  -3.28997
 Alpha  occ. eigenvalues --   -0.84958  -0.74807  -0.73003  -0.72968  -0.65234
 Alpha  occ. eigenvalues --   -0.60053  -0.58534  -0.57772  -0.56059  -0.53496
 Alpha  occ. eigenvalues --   -0.51307  -0.48640  -0.45027  -0.42942  -0.40070
 Alpha  occ. eigenvalues --   -0.38833  -0.38551  -0.37732  -0.36921  -0.36783
 Alpha  occ. eigenvalues --   -0.36467  -0.35638  -0.34934  -0.34694
 Alpha virt. eigenvalues --   -0.13677  -0.13561  -0.13244  -0.12694  -0.11789
 Alpha virt. eigenvalues --   -0.10914  -0.10665  -0.09742  -0.06906  -0.06842
 Alpha virt. eigenvalues --   -0.05856  -0.05707  -0.05569  -0.04690  -0.04460

  Beta  occ. eigenvalues --  -58.61296 -58.60912 -58.60752 -58.60682 -58.60647
  Beta  occ. eigenvalues --  -58.60610 -58.60610 -58.60509 -58.60216 -58.60216
  Beta  occ. eigenvalues --  -58.59834 -58.59834 -58.59799 -58.59799 -58.59472
  Beta  occ. eigenvalues --  -58.55415  -5.02364  -5.02044  -5.02008  -5.01784
  Beta  occ. eigenvalues --   -5.01784  -5.01658  -5.01608  -5.01491  -5.01436
  Beta  occ. eigenvalues --   -5.01436  -5.01100  -5.01099  -5.01043  -5.01043
  Beta  occ. eigenvalues --   -5.00597  -4.97594  -3.33635  -3.33502  -3.33457
  Beta  occ. eigenvalues --   -3.33399  -3.33385  -3.33291  -3.33155  -3.33106
  Beta  occ. eigenvalues --   -3.33092  -3.33025  -3.33025  -3.32991  -3.32990
  Beta  occ. eigenvalues --   -3.32941  -3.32885  -3.32884  -3.32877  -3.32869
  Beta  occ. eigenvalues --   -3.32864  -3.32850  -3.32841  -3.32727  -3.32699
  Beta  occ. eigenvalues --   -3.32699  -3.32624  -3.32570  -3.32569  -3.32563
  Beta  occ. eigenvalues --   -3.32563  -3.32470  -3.32371  -3.32364  -3.32326
  Beta  occ. eigenvalues --   -3.32325  -3.32232  -3.32231  -3.32217  -3.32217
  Beta  occ. eigenvalues --   -3.32152  -3.32152  -3.32144  -3.32144  -3.31659
  Beta  occ. eigenvalues --   -3.31624  -3.31486  -3.29006  -3.28991  -3.28879
  Beta  occ. eigenvalues --   -0.84675  -0.74035  -0.73120  -0.72700  -0.64738
  Beta  occ. eigenvalues --   -0.58817  -0.58600  -0.56959  -0.56142  -0.53086
  Beta  occ. eigenvalues --   -0.51468  -0.45909  -0.44751  -0.40032  -0.38983
  Beta  occ. eigenvalues --   -0.38945  -0.37731  -0.37082  -0.36726  -0.36703
  Beta  occ. eigenvalues --   -0.35866  -0.35112  -0.34953
  Beta virt. eigenvalues --   -0.13969  -0.13145  -0.13129  -0.12663  -0.12082
  Beta virt. eigenvalues --   -0.11341  -0.10666  -0.10294  -0.09954  -0.06864
  Beta virt. eigenvalues --   -0.06443  -0.05451  -0.05403  -0.04958  -0.04552

 Mulliken charges and spin densities:
               1          2
     1  Al  -0.041085   0.038171
     2  Al  -0.042469   0.074497
     3  Al   0.044978   0.538167
     4  Al  -0.064764  -0.320436
     5  Al  -0.027756   0.020457
     6  Al  -0.002534  -0.057951
     7  Al  -0.002534  -0.057951
     8  Al  -0.042469   0.074497
     9  Al   0.043662  -0.049002
    10  Al   0.043171   0.139218
    11  Al  -0.027756   0.020457
    12  Al   0.043662  -0.049002
    13  Al   0.125665   0.028549
    14  Al   0.245605  -0.111795
    15  Al   0.196006   0.648492
    16  Al   0.508619   0.063634
 Sum of Mulliken charges =   1.00000   1.00000

 Dipole moment (field-independent basis, Debye):
    X=              0.2639    Y=              0.7675    Z=              0.0000  Tot=              0.8116
 Quadrupole moment (field-independent basis, Debye-Ang):
   XX=           -177.4323   YY=           -162.4986   ZZ=           -178.1129
   XY=              6.5041   XZ=              0.0000   YZ=              0.0000

 9\CCSD=-3871.9501652\CCSD(T)=-3872.1427939\S2=1.210211\S2-1=1.104099\S
 Normal termination of Gaussian 09 at Wed Oct  5 00:01:30 2016.
