 Gaussian 09, Revision D.01,

 ------------------------
 # hf/6-31G* test scf=xqc
 ------------------------

 --------
 Al16-n-s
 --------
 Symbolic Z-matrix:
 Charge =  0 Multiplicity = 1

 SCF Done:  E(RHF) =  -3870.42812263     A.U. after   22 cycles
 Normal termination of Gaussian 09 at Sat Oct  1 15:29:53 2016.
 Gaussian 09:  ES64L-G09RevD.01 24-Apr-2013

 --------------------------------------------------------
 # CCSD(T,conver=5)/cc-pVTZ test geom=allcheck guess=read
 --------------------------------------------------------

 Structure from the checkpoint file:  "cc-Al16-n-s.chk"
 --------
 Al16-n-s
 --------
 Charge =  0 Multiplicity = 1

                         Standard orientation:
 ---------------------------------------------------------------------
 Center     Atomic      Atomic             Coordinates (Angstroms)
 Number     Number       Type             X           Y           Z
 ---------------------------------------------------------------------
      1         13           0        1.729928   -1.884021    0.000000
      2         13           0       -0.768597   -1.722748    1.528985
      3         13           0        2.867986    0.602785    0.000000
      4         13           0       -2.489064   -0.198398    0.000000
      5         13           0       -1.091630    0.890051    2.264385
      6         13           0        1.424537   -0.389626   -2.273004
      7         13           0        1.424537   -0.389626    2.273004
      8         13           0       -0.768597   -1.722748   -1.528985
      9         13           0        1.424537    2.210798   -1.784728
     10         13           0       -1.850282    2.364073    0.000000
     11         13           0       -1.091630    0.890051   -2.264385
     12         13           0        1.424537    2.210798    1.784728
     13         13           0       -0.067727   -3.868348    0.000000
     14         13           0        0.332983    3.744265    0.000000
     15         13           0       -2.702471   -3.242177    0.000000
     16         13           0        0.200950    0.504871    0.000000
 ---------------------------------------------------------------------

 SCF Done:  E(RHF) =  -3870.77169849     A.U. after   18 cycles
 E2 =    -0.1584407739D+01 EUMP2 =    -0.38723561062299D+04
 CCSD(T)= -0.38723621949D+04

 The electronic state is 1-A'.
 Alpha  occ. eigenvalues --  -58.49767 -58.49369 -58.49302 -58.49256 -58.49256
 Alpha  occ. eigenvalues --  -58.48999 -58.48870 -58.48625 -58.48625 -58.48623
 Alpha  occ. eigenvalues --  -58.48623 -58.48291 -58.48291 -58.47361 -58.46908
 Alpha  occ. eigenvalues --  -58.44125  -4.90860  -4.90555  -4.90490  -4.90416
 Alpha  occ. eigenvalues --   -4.90415  -4.90210  -4.90063  -4.89896  -4.89896
 Alpha  occ. eigenvalues --   -4.89832  -4.89832  -4.89593  -4.89592  -4.88407
 Alpha  occ. eigenvalues --   -4.88146  -4.86338  -3.22115  -3.21978  -3.21966
 Alpha  occ. eigenvalues --   -3.21807  -3.21739  -3.21711  -3.21683  -3.21659
 Alpha  occ. eigenvalues --   -3.21658  -3.21630  -3.21610  -3.21599  -3.21598
 Alpha  occ. eigenvalues --   -3.21522  -3.21522  -3.21479  -3.21440  -3.21387
 Alpha  occ. eigenvalues --   -3.21251  -3.21170  -3.21148  -3.21136  -3.21136
 Alpha  occ. eigenvalues --   -3.21050  -3.21049  -3.21028  -3.21027  -3.21009
 Alpha  occ. eigenvalues --   -3.21009  -3.20913  -3.20913  -3.20912  -3.20912
 Alpha  occ. eigenvalues --   -3.20863  -3.20853  -3.20819  -3.20818  -3.20766
 Alpha  occ. eigenvalues --   -3.20761  -3.19312  -3.19302  -3.19283  -3.19240
 Alpha  occ. eigenvalues --   -3.19183  -3.19134  -3.17761  -3.17757  -3.17686
 Alpha  occ. eigenvalues --   -0.73568  -0.62974  -0.61577  -0.61569  -0.53517
 Alpha  occ. eigenvalues --   -0.48251  -0.46953  -0.46099  -0.44317  -0.41741
 Alpha  occ. eigenvalues --   -0.40010  -0.36769  -0.33111  -0.30564  -0.28024
 Alpha  occ. eigenvalues --   -0.27121  -0.26577  -0.26433  -0.25651  -0.25596
 Alpha  occ. eigenvalues --   -0.24547  -0.23438  -0.23259  -0.21969
 Alpha virt. eigenvalues --   -0.03153  -0.02545  -0.02494  -0.02195  -0.00641
 Alpha virt. eigenvalues --   -0.00418   0.00719   0.01360   0.03654   0.04065
 Alpha virt. eigenvalues --    0.04259   0.04978   0.05069   0.05478   0.06355

 Mulliken charges:
               1
     1  Al  -0.082998
     2  Al  -0.042672
     3  Al  -0.098440
     4  Al  -0.089292
     5  Al  -0.099839
     6  Al  -0.102569
     7  Al  -0.102569
     8  Al  -0.042672
     9  Al  -0.036560
    10  Al  -0.022414
    11  Al  -0.099839
    12  Al  -0.036560
    13  Al  -0.008362
    14  Al   0.139398
    15  Al   0.010077
    16  Al   0.715312
 Sum of Mulliken charges =   0.00000

 Dipole moment (field-independent basis, Debye):
    X=              1.2538    Y=              2.5222    Z=              0.0000  Tot=              2.8166
 Quadrupole moment (field-independent basis, Debye-Ang):
   XX=           -211.8909   YY=           -214.7382   ZZ=           -205.0911
   XY=             -7.5750   XZ=              0.0000   YZ=              0.0000

 .3076131\CCSD=-3872.1611034\CCSD(T)=-3872.3621949\RMSD=6.087e-09\PG=CS
 Normal termination of Gaussian 09 at Sun Oct  2 04:30:34 2016.
