 Gaussian 09, Revision D.01,

 ------------------------
 # hf/6-31G* test scf=xqc
 ------------------------

 --------
 Al17-n-d
 --------
 Symbolic Z-matrix:
 Charge =  0 Multiplicity = 2

 SCF Done:  E(UHF) =  -4112.34431633     A.U. after   23 cycles
 Normal termination of Gaussian 09 at Sat Oct  1 15:44:41 2016.
 Gaussian 09:  ES64L-G09RevD.01 24-Apr-2013

 --------------------------------------------------------
 # CCSD(T,conver=5)/cc-pVTZ test geom=allcheck guess=read
 --------------------------------------------------------

 Structure from the checkpoint file:  "cc-Al17-n-d.chk"
 --------
 Al17-n-d
 --------
 Charge =  0 Multiplicity = 2

                         Standard orientation:
 ---------------------------------------------------------------------
 Center     Atomic      Atomic             Coordinates (Angstroms)
 Number     Number       Type             X           Y           Z
 ---------------------------------------------------------------------
      1         13           0        1.401968    2.295645    0.000000
      2         13           0        2.181110    0.000000    1.560551
      3         13           0       -1.401968    2.295645    0.000000
      4         13           0        1.401968   -2.295645    0.000000
      5         13           0        0.000000   -1.430378    2.263097
      6         13           0        0.000000    1.430378   -2.263097
      7         13           0        0.000000    1.430378    2.263097
      8         13           0        2.181110    0.000000   -1.560551
      9         13           0       -2.181110    0.000000   -1.560551
     10         13           0       -1.401968   -2.295645    0.000000
     11         13           0        0.000000   -1.430378   -2.263097
     12         13           0       -2.181110    0.000000    1.560551
     13         13           0        4.096389    1.321367    0.000000
     14         13           0       -4.096389   -1.321367    0.000000
     15         13           0        4.096389   -1.321367    0.000000
     16         13           0        0.000000    0.000000    0.000000
     17         13           0       -4.096389    1.321367    0.000000
 ---------------------------------------------------------------------

 SCF Done:  E(UHF) =  -4112.71224893     A.U. after   19 cycles
 E2 =    -0.1645389545D+01 EUMP2 =    -0.41143576384749D+04
 CCSD(T)= -0.41143899076D+04

 The electronic state is 2-B2U.
 Alpha  occ. eigenvalues --  -58.49947 -58.49947 -58.49947 -58.49947 -58.48916
 Alpha  occ. eigenvalues --  -58.48916 -58.48916 -58.48916 -58.48715 -58.48715
 Alpha  occ. eigenvalues --  -58.48715 -58.48715 -58.48545 -58.48545 -58.48545
 Alpha  occ. eigenvalues --  -58.48545 -58.43435  -4.91089  -4.91089  -4.91084
 Alpha  occ. eigenvalues --   -4.91084  -4.90052  -4.90052  -4.90045  -4.90045
 Alpha  occ. eigenvalues --   -4.89973  -4.89973  -4.89969  -4.89969  -4.89835
 Alpha  occ. eigenvalues --   -4.89834  -4.89833  -4.89833  -4.85947  -3.22288
 Alpha  occ. eigenvalues --   -3.22287  -3.22282  -3.22281  -3.22272  -3.22272
 Alpha  occ. eigenvalues --   -3.22242  -3.22242  -3.22240  -3.22240  -3.22238
 Alpha  occ. eigenvalues --   -3.22238  -3.21305  -3.21305  -3.21275  -3.21275
 Alpha  occ. eigenvalues --   -3.21203  -3.21203  -3.21193  -3.21192  -3.21139
 Alpha  occ. eigenvalues --   -3.21136  -3.21132  -3.21130  -3.21116  -3.21115
 Alpha  occ. eigenvalues --   -3.21111  -3.21110  -3.21108  -3.21108  -3.21084
 Alpha  occ. eigenvalues --   -3.21083  -3.21069  -3.21062  -3.21059  -3.21046
 Alpha  occ. eigenvalues --   -3.21046  -3.21043  -3.21037  -3.21027  -3.21001
 Alpha  occ. eigenvalues --   -3.21000  -3.20991  -3.20989  -3.20781  -3.20781
 Alpha  occ. eigenvalues --   -3.20749  -3.20749  -3.17380  -3.17356  -3.17332
 Alpha  occ. eigenvalues --   -0.75023  -0.64964  -0.62026  -0.61948  -0.56932
 Alpha  occ. eigenvalues --   -0.49407  -0.47294  -0.46681  -0.45758  -0.44785
 Alpha  occ. eigenvalues --   -0.41604  -0.40999  -0.33656  -0.33035  -0.31977
 Alpha  occ. eigenvalues --   -0.31185  -0.27639  -0.26849  -0.26435  -0.26151
 Alpha  occ. eigenvalues --   -0.25916  -0.25710  -0.25462  -0.24328  -0.23670
 Alpha  occ. eigenvalues --   -0.23463
 Alpha virt. eigenvalues --   -0.03968  -0.03411  -0.02281  -0.00517  -0.00504
 Alpha virt. eigenvalues --   -0.00295  -0.00011   0.01270   0.03675   0.03985
 Alpha virt. eigenvalues --    0.04130   0.04654   0.05092   0.05202   0.06088

  Beta  occ. eigenvalues --  -58.49850 -58.49850 -58.49850 -58.49850 -58.48746
  Beta  occ. eigenvalues --  -58.48746 -58.48746 -58.48746 -58.48725 -58.48725
  Beta  occ. eigenvalues --  -58.48725 -58.48725 -58.48594 -58.48594 -58.48594
  Beta  occ. eigenvalues --  -58.48594 -58.43394  -4.90904  -4.90904  -4.90899
  Beta  occ. eigenvalues --   -4.90899  -4.90009  -4.90009  -4.90004  -4.90004
  Beta  occ. eigenvalues --   -4.89949  -4.89948  -4.89948  -4.89947  -4.89671
  Beta  occ. eigenvalues --   -4.89671  -4.89663  -4.89663  -4.85892  -3.22228
  Beta  occ. eigenvalues --   -3.22228  -3.22222  -3.22221  -3.22159  -3.22159
  Beta  occ. eigenvalues --   -3.22154  -3.22154  -3.22037  -3.22037  -3.22006
  Beta  occ. eigenvalues --   -3.22006  -3.21245  -3.21244  -3.21227  -3.21227
  Beta  occ. eigenvalues --   -3.21191  -3.21188  -3.21184  -3.21184  -3.21184
  Beta  occ. eigenvalues --   -3.21180  -3.21175  -3.21173  -3.21140  -3.21140
  Beta  occ. eigenvalues --   -3.21133  -3.21132  -3.21125  -3.21125  -3.21124
  Beta  occ. eigenvalues --   -3.21123  -3.21063  -3.21060  -3.21060  -3.21056
  Beta  occ. eigenvalues --   -3.21010  -3.21010  -3.20971  -3.20971  -3.20861
  Beta  occ. eigenvalues --   -3.20861  -3.20853  -3.20853  -3.20622  -3.20622
  Beta  occ. eigenvalues --   -3.20591  -3.20590  -3.17316  -3.17274  -3.17224
  Beta  occ. eigenvalues --   -0.75115  -0.65087  -0.62617  -0.61823  -0.57279
  Beta  occ. eigenvalues --   -0.48884  -0.47426  -0.47314  -0.45507  -0.45463
  Beta  occ. eigenvalues --   -0.41365  -0.39629  -0.34202  -0.32032  -0.30626
  Beta  occ. eigenvalues --   -0.27959  -0.26736  -0.26567  -0.26462  -0.26416
  Beta  occ. eigenvalues --   -0.25973  -0.25548  -0.25505  -0.22400  -0.22360
  Beta virt. eigenvalues --   -0.03079  -0.03030  -0.02571  -0.01923  -0.00113
  Beta virt. eigenvalues --   -0.00005   0.00086   0.01185   0.02014   0.04016
  Beta virt. eigenvalues --    0.04081   0.04239   0.04890   0.05140   0.05863

 Mulliken charges and spin densities:
               1          2
     1  Al  -0.101143   0.100366
     2  Al  -0.082536  -0.021498
     3  Al  -0.101143   0.100366
     4  Al  -0.101143   0.100366
     5  Al  -0.115785  -0.067821
     6  Al  -0.115785  -0.067821
     7  Al  -0.115785  -0.067821
     8  Al  -0.082536  -0.021498
     9  Al  -0.082536  -0.021498
    10  Al  -0.101143   0.100366
    11  Al  -0.115785  -0.067821
    12  Al  -0.082536  -0.021498
    13  Al   0.047164   0.231481
    14  Al   0.047164   0.231481
    15  Al   0.047164   0.231481
    16  Al   1.009204   0.029890
    17  Al   0.047164   0.231481
 Sum of Mulliken charges =   0.00000   1.00000

 Dipole moment (field-independent basis, Debye):
    X=              0.0000    Y=              0.0000    Z=              0.0000  Tot=              0.0000
 Quadrupole moment (field-independent basis, Debye-Ang):
   XX=           -242.9014   YY=           -220.0981   ZZ=           -216.7587
   XY=              0.0000   XZ=              0.0000   YZ=              0.0000

 463\MP4SDQ=-4114.3198676\CCSD=-4114.1783523\CCSD(T)=-4114.3899076\S2=1
 Normal termination of Gaussian 09 at Sun Oct  2 01:29:33 2016.
