 Gaussian 09, Revision D.01,

 ------------------------
 # hf/6-31G* test scf=xqc
 ------------------------

 --------
 Al17-c-s
 --------
 Symbolic Z-matrix:
 Charge =  1 Multiplicity = 1

 SCF Done:  E(RHF) =  -4112.14996992     A.U. after   17 cycles
 Normal termination of Gaussian 09 at Sun Oct  2 20:03:59 2016.
 Gaussian 09:  ES64L-G09RevD.01 24-Apr-2013

 --------------------------------------------------------
 # CCSD(T,conver=5)/cc-pVTZ test geom=allcheck guess=read
 --------------------------------------------------------

 Structure from the checkpoint file:  "cc-Al17-c-s.chk"
 --------
 Al17-c-s
 --------
 Charge =  1 Multiplicity = 1

                         Standard orientation:
 ---------------------------------------------------------------------
 Center     Atomic      Atomic             Coordinates (Angstroms)
 Number     Number       Type             X           Y           Z
 ---------------------------------------------------------------------
      1         13           0        1.407901    2.311769    0.000000
      2         13           0        2.137579    0.000000    1.627588
      3         13           0       -1.407901    2.311769    0.000000
      4         13           0        1.407901   -2.311769    0.000000
      5         13           0        0.000000   -1.454285    2.280013
      6         13           0        0.000000    1.454285   -2.280013
      7         13           0        0.000000    1.454285    2.280013
      8         13           0        2.137579    0.000000   -1.627588
      9         13           0       -2.137579    0.000000   -1.627588
     10         13           0       -1.407901   -2.311769    0.000000
     11         13           0        0.000000   -1.454285   -2.280013
     12         13           0       -2.137579    0.000000    1.627588
     13         13           0        3.996382    1.265411    0.000000
     14         13           0       -3.996382   -1.265411    0.000000
     15         13           0        3.996382   -1.265411    0.000000
     16         13           0        0.000000    0.000000    0.000000
     17         13           0       -3.996382    1.265411    0.000000
 ---------------------------------------------------------------------

 SCF Done:  E(RHF) =  -4112.51527585     A.U. after   14 cycles
 E2 =    -0.1661187217D+01 EUMP2 =    -0.41141764630684D+04
 CCSD(T)= -0.41141834483D+04

 The electronic state is 1-AG.
 Alpha  occ. eigenvalues --  -58.62076 -58.62076 -58.62076 -58.62076 -58.60456
 Alpha  occ. eigenvalues --  -58.60456 -58.60456 -58.60456 -58.59652 -58.59652
 Alpha  occ. eigenvalues --  -58.59652 -58.59652 -58.59227 -58.59227 -58.59227
 Alpha  occ. eigenvalues --  -58.59227 -58.53996  -5.03024  -5.03024  -5.03020
 Alpha  occ. eigenvalues --   -5.03020  -5.01518  -5.01518  -5.01506  -5.01506
 Alpha  occ. eigenvalues --   -5.00881  -5.00881  -5.00878  -5.00878  -5.00576
 Alpha  occ. eigenvalues --   -5.00576  -5.00575  -5.00575  -4.96453  -3.34300
 Alpha  occ. eigenvalues --   -3.34300  -3.34295  -3.34295  -3.34249  -3.34249
 Alpha  occ. eigenvalues --   -3.34245  -3.34244  -3.34198  -3.34198  -3.34168
 Alpha  occ. eigenvalues --   -3.34168  -3.32711  -3.32711  -3.32662  -3.32662
 Alpha  occ. eigenvalues --   -3.32645  -3.32645  -3.32632  -3.32632  -3.32551
 Alpha  occ. eigenvalues --   -3.32551  -3.32496  -3.32496  -3.32117  -3.32116
 Alpha  occ. eigenvalues --   -3.32107  -3.32106  -3.32024  -3.32024  -3.32008
 Alpha  occ. eigenvalues --   -3.32008  -3.31990  -3.31990  -3.31988  -3.31987
 Alpha  occ. eigenvalues --   -3.31846  -3.31845  -3.31841  -3.31840  -3.31804
 Alpha  occ. eigenvalues --   -3.31804  -3.31802  -3.31801  -3.31735  -3.31733
 Alpha  occ. eigenvalues --   -3.31732  -3.31730  -3.27855  -3.27846  -3.27819
 Alpha  occ. eigenvalues --   -0.85619  -0.76050  -0.73195  -0.72732  -0.68411
 Alpha  occ. eigenvalues --   -0.60217  -0.58210  -0.58084  -0.56695  -0.56192
 Alpha  occ. eigenvalues --   -0.52150  -0.50869  -0.45287  -0.42203  -0.42110
 Alpha  occ. eigenvalues --   -0.38699  -0.37799  -0.37779  -0.37664  -0.37168
 Alpha  occ. eigenvalues --   -0.36798  -0.36522  -0.36221  -0.34554  -0.32727
 Alpha virt. eigenvalues --   -0.15609  -0.14159  -0.13677  -0.12708  -0.11535
 Alpha virt. eigenvalues --   -0.10894  -0.10489  -0.09837  -0.09332  -0.06533
 Alpha virt. eigenvalues --   -0.06139  -0.05726  -0.05637  -0.04930  -0.04848

 Mulliken charges:
               1
     1  Al  -0.009449
     2  Al  -0.044841
     3  Al  -0.009449
     4  Al  -0.009449
     5  Al  -0.030652
     6  Al  -0.030652
     7  Al  -0.030652
     8  Al  -0.044841
     9  Al  -0.044841
    10  Al  -0.009449
    11  Al  -0.030652
    12  Al  -0.044841
    13  Al   0.136539
    14  Al   0.136539
    15  Al   0.136539
    16  Al   0.793614
    17  Al   0.136539
 Sum of Mulliken charges =   1.00000

 Dipole moment (field-independent basis, Debye):
    X=              0.0000    Y=              0.0000    Z=              0.0000  Tot=              0.0000
 Quadrupole moment (field-independent basis, Debye-Ang):
   XX=           -171.9998   YY=           -187.5567   ZZ=           -194.5905
   XY=              0.0000   XZ=              0.0000   YZ=              0.0000

 250749\CCSD=-4113.9723989\CCSD(T)=-4114.1834483\RMSD=3.890e-09\PG=D02H
 Normal termination of Gaussian 09 at Sun Oct  2 23:06:03 2016.
