 Gaussian 09, Revision D.01,

 ------------------------
 # hf/6-31G* test scf=xqc
 ------------------------

 --------
 Al17-a-s
 --------
 Symbolic Z-matrix:
 Charge = -1 Multiplicity = 1

 SCF Done:  E(RHF) =  -4112.40567648     A.U. after   16 cycles
 Normal termination of Gaussian 09 at Sat Oct  1 15:23:09 2016.
 Gaussian 09:  ES64L-G09RevD.01 24-Apr-2013

 --------------------------------------------------------
 # CCSD(T,conver=5)/cc-pVTZ test geom=allcheck guess=read
 --------------------------------------------------------

 Structure from the checkpoint file:  "cc-Al17-a-s.chk"
 --------
 Al17-a-s
 --------
 Charge = -1 Multiplicity = 1

                         Standard orientation:
 ---------------------------------------------------------------------
 Center     Atomic      Atomic             Coordinates (Angstroms)
 Number     Number       Type             X           Y           Z
 ---------------------------------------------------------------------
      1         13           0        1.398260    2.281013    0.000000
      2         13           0        2.233881    0.000000    1.499186
      3         13           0       -1.398260    2.281013    0.000000
      4         13           0        1.398260   -2.281013    0.000000
      5         13           0        0.000000   -1.412118    2.250941
      6         13           0        0.000000    1.412118   -2.250941
      7         13           0        0.000000    1.412118    2.250941
      8         13           0        2.233881    0.000000   -1.499186
      9         13           0       -2.233881    0.000000   -1.499186
     10         13           0       -1.398260   -2.281013    0.000000
     11         13           0        0.000000   -1.412118   -2.250941
     12         13           0       -2.233881    0.000000    1.499186
     13         13           0        4.212672    1.395293    0.000000
     14         13           0       -4.212672   -1.395293    0.000000
     15         13           0        4.212672   -1.395293    0.000000
     16         13           0        0.000000    0.000000    0.000000
     17         13           0       -4.212672    1.395293    0.000000
 ---------------------------------------------------------------------

 SCF Done:  E(RHF) =  -4112.77303337     A.U. after   14 cycles
 E2 =    -0.1724623036D+01 EUMP2 =    -0.41144976564052D+04
 CCSD(T)= -0.41144952928D+04

 The electronic state is 1-AG.
 Alpha  occ. eigenvalues --  -58.38557 -58.38557 -58.38557 -58.38557 -58.38386
 Alpha  occ. eigenvalues --  -58.38386 -58.38386 -58.38386 -58.38162 -58.38162
 Alpha  occ. eigenvalues --  -58.38162 -58.38162 -58.37604 -58.37604 -58.37604
 Alpha  occ. eigenvalues --  -58.37604 -58.32986  -4.79766  -4.79766  -4.79761
 Alpha  occ. eigenvalues --   -4.79761  -4.79647  -4.79646  -4.79642  -4.79642
 Alpha  occ. eigenvalues --   -4.79448  -4.79448  -4.79446  -4.79446  -4.78650
 Alpha  occ. eigenvalues --   -4.78650  -4.78646  -4.78646  -4.75544  -3.11017
 Alpha  occ. eigenvalues --   -3.11016  -3.11007  -3.11006  -3.10962  -3.10962
 Alpha  occ. eigenvalues --   -3.10956  -3.10955  -3.10915  -3.10915  -3.10884
 Alpha  occ. eigenvalues --   -3.10884  -3.10862  -3.10862  -3.10848  -3.10847
 Alpha  occ. eigenvalues --   -3.10771  -3.10770  -3.10752  -3.10751  -3.10749
 Alpha  occ. eigenvalues --   -3.10748  -3.10745  -3.10744  -3.10732  -3.10732
 Alpha  occ. eigenvalues --   -3.10721  -3.10720  -3.10686  -3.10685  -3.10681
 Alpha  occ. eigenvalues --   -3.10681  -3.10618  -3.10615  -3.10613  -3.10610
 Alpha  occ. eigenvalues --   -3.09588  -3.09588  -3.09579  -3.09579  -3.09576
 Alpha  occ. eigenvalues --   -3.09576  -3.09576  -3.09576  -3.09573  -3.09573
 Alpha  occ. eigenvalues --   -3.09551  -3.09551  -3.06955  -3.06955  -3.06919
 Alpha  occ. eigenvalues --   -0.64689  -0.54212  -0.51541  -0.51456  -0.45906
 Alpha  occ. eigenvalues --   -0.38368  -0.36619  -0.35970  -0.34858  -0.34478
 Alpha  occ. eigenvalues --   -0.31131  -0.29772  -0.22698  -0.22064  -0.19787
 Alpha  occ. eigenvalues --   -0.19621  -0.16447  -0.16376  -0.15863  -0.15711
 Alpha  occ. eigenvalues --   -0.15624  -0.15451  -0.14287  -0.12588  -0.12559
 Alpha  occ. eigenvalues --   -0.10431
 Alpha virt. eigenvalues --    0.06556   0.06740   0.07491   0.09676   0.09764
 Alpha virt. eigenvalues --    0.09814   0.09827   0.11896   0.13295   0.13662
 Alpha virt. eigenvalues --    0.14284   0.14776   0.14857   0.15339   0.15939

 Mulliken charges:
               1
     1  Al  -0.171323
     2  Al  -0.106737
     3  Al  -0.171323
     4  Al  -0.171323
     5  Al  -0.191863
     6  Al  -0.191863
     7  Al  -0.191863
     8  Al  -0.106737
     9  Al  -0.106737
    10  Al  -0.171323
    11  Al  -0.191863
    12  Al  -0.106737
    13  Al  -0.066607
    14  Al  -0.066607
    15  Al  -0.066607
    16  Al   1.146116
    17  Al  -0.066607
 Sum of Mulliken charges =  -1.00000

 Dipole moment (field-independent basis, Debye):
    X=              0.0000    Y=              0.0000    Z=              0.0000  Tot=              0.0000
 Quadrupole moment (field-independent basis, Debye-Ang):
   XX=           -325.8505   YY=           -253.3419   ZZ=           -239.9714
   XY=              0.0000   XZ=              0.0000   YZ=              0.0000

 4.4271232\MP4SDQ=-4114.4590907\CCSD=-4114.2773431\CCSD(T)=-4114.495292
 Normal termination of Gaussian 09 at Sat Oct  1 19:12:19 2016.
