 Gaussian 09, Revision A.01,

 ----------------------
 #n b3lyp/6-31g(d) test
 ----------------------

 -----------------
 ccsdt-Al18-a-d-01
 -----------------
 Symbolic Z-matrix:
 Charge = -1 Multiplicity = 2

 SCF Done:  E(UB3LYP) =  -4364.10004070     A.U. after   38 cycles
 Normal termination of Gaussian 09 at Sun Jul  9 21:08:54 2017.
 Gaussian 09:  EM64L-G09RevA.01  8-May-2009

 --------------------------------------------------------
 # ccsd(t,conver=5)/cc-pvtz test geom=allcheck guess=read
 --------------------------------------------------------

 ccsdt-Al18-a-d-01
 -----------------
 Z-Matrix taken from the checkpoint file:
 ccsdt-Al18-a-d.chk
 Charge = -1 Multiplicity = 2

                         Standard orientation:
 ---------------------------------------------------------------------
 Center     Atomic      Atomic             Coordinates (Angstroms)
 Number     Number       Type             X           Y           Z
 ---------------------------------------------------------------------
      1         13           0       -1.682161   -2.242346    0.170298
      2         13           0       -2.668206    0.131029    1.309151
      3         13           0        1.079915   -2.282067    0.507730
      4         13           0       -1.656686    2.236997   -0.259736
      5         13           0       -0.591612    1.640777    2.233883
      6         13           0       -0.002336   -1.671554   -2.047217
      7         13           0       -0.606508   -1.168222    2.485168
      8         13           0       -2.253132   -0.163157   -1.677512
      9         13           0        2.149017   -0.098400   -1.376564
     10         13           0        1.106967    2.308722    0.073021
     11         13           0       -0.016115    1.237183   -2.307042
     12         13           0        1.765799    0.168695    2.026427
     13         13           0       -4.353593   -1.403601   -0.358007
     14         13           0        3.653335    1.464770    0.443529
     15         13           0       -4.320233    1.350805   -0.564622
     16         13           0       -0.166639    0.003053    0.101374
     17         13           0        3.628795   -1.420760    0.571224
     18         13           0        4.933393   -0.091925   -1.331106
 ---------------------------------------------------------------------

 SCF Done:  E(UHF) =  -4354.69928371     A.U. after   80 cycles
 E2 =    -0.1747629645D+01 EUMP2 =    -0.43564469133560D+04
 CCSD(T)= -0.43565072029D+04

 The electronic state is 2-A.
 Alpha  occ. eigenvalues --  -58.39239 -58.39231 -58.39202 -58.39119 -58.38865
 Alpha  occ. eigenvalues --  -58.38645 -58.38529 -58.38217 -58.38163 -58.38145
 Alpha  occ. eigenvalues --  -58.38133 -58.38090 -58.37914 -58.37835 -58.37554
 Alpha  occ. eigenvalues --  -58.37450 -58.35920 -58.34662  -4.80523  -4.80425
 Alpha  occ. eigenvalues --   -4.80384  -4.80315  -4.80055  -4.79877  -4.79807
 Alpha  occ. eigenvalues --   -4.79518  -4.79431  -4.79420  -4.79279  -4.79270
 Alpha  occ. eigenvalues --   -4.79190  -4.79121  -4.78890  -4.78860  -4.77049
 Alpha  occ. eigenvalues --   -4.76886  -3.11851  -3.11761  -3.11711  -3.11668
 Alpha  occ. eigenvalues --   -3.11614  -3.11614  -3.11599  -3.11579  -3.11568
 Alpha  occ. eigenvalues --   -3.11520  -3.11501  -3.11448  -3.11297  -3.11238
 Alpha  occ. eigenvalues --   -3.11173  -3.11096  -3.11045  -3.11003  -3.10928
 Alpha  occ. eigenvalues --   -3.10914  -3.10891  -3.10828  -3.10804  -3.10707
 Alpha  occ. eigenvalues --   -3.10674  -3.10602  -3.10595  -3.10555  -3.10532
 Alpha  occ. eigenvalues --   -3.10529  -3.10471  -3.10409  -3.10407  -3.10391
 Alpha  occ. eigenvalues --   -3.10340  -3.10305  -3.10269  -3.10212  -3.10183
 Alpha  occ. eigenvalues --   -3.10178  -3.10119  -3.10080  -3.10066  -3.10043
 Alpha  occ. eigenvalues --   -3.10038  -3.09947  -3.09938  -3.09825  -3.08313
 Alpha  occ. eigenvalues --   -3.08264  -3.08256  -3.08104  -3.07898  -3.07856
 Alpha  occ. eigenvalues --   -0.64183  -0.55103  -0.51662  -0.51275  -0.47680
 Alpha  occ. eigenvalues --   -0.40210  -0.39003  -0.36583  -0.35489  -0.34707
 Alpha  occ. eigenvalues --   -0.32102  -0.31509  -0.29158  -0.23543  -0.21696
 Alpha  occ. eigenvalues --   -0.21149  -0.19324  -0.18686  -0.18189  -0.16533
 Alpha  occ. eigenvalues --   -0.16397  -0.16246  -0.15778  -0.14587  -0.13864
 Alpha  occ. eigenvalues --   -0.13146  -0.12290  -0.09223
 Alpha virt. eigenvalues --    0.06182   0.06360   0.07262   0.09083   0.09433
 Alpha virt. eigenvalues --    0.09586   0.10226   0.12105   0.12887   0.13557
 Alpha virt. eigenvalues --    0.13903   0.14235   0.14383   0.14739   0.15534

  Beta  occ. eigenvalues --  -58.39395 -58.39386 -58.38994 -58.38875 -58.38839
  Beta  occ. eigenvalues --  -58.38667 -58.38527 -58.38109 -58.38104 -58.38059
  Beta  occ. eigenvalues --  -58.38050 -58.37941 -58.37889 -58.37606 -58.37527
  Beta  occ. eigenvalues --  -58.37421 -58.36017 -58.34692  -4.80637  -4.80634
  Beta  occ. eigenvalues --   -4.80083  -4.80074  -4.79922  -4.79901  -4.79796
  Beta  occ. eigenvalues --   -4.79407  -4.79252  -4.79202  -4.79142  -4.79092
  Beta  occ. eigenvalues --   -4.79068  -4.78824  -4.78813  -4.78709  -4.77156
  Beta  occ. eigenvalues --   -4.76938  -3.12073  -3.12055  -3.11839  -3.11825
  Beta  occ. eigenvalues --   -3.11742  -3.11733  -3.11436  -3.11340  -3.11297
  Beta  occ. eigenvalues --   -3.11281  -3.11278  -3.11248  -3.11231  -3.11174
  Beta  occ. eigenvalues --   -3.11114  -3.11113  -3.11064  -3.11021  -3.11009
  Beta  occ. eigenvalues --   -3.10951  -3.10916  -3.10755  -3.10632  -3.10540
  Beta  occ. eigenvalues --   -3.10535  -3.10507  -3.10458  -3.10439  -3.10414
  Beta  occ. eigenvalues --   -3.10345  -3.10315  -3.10274  -3.10225  -3.10204
  Beta  occ. eigenvalues --   -3.10190  -3.10154  -3.10117  -3.10114  -3.10099
  Beta  occ. eigenvalues --   -3.10064  -3.10019  -3.10013  -3.09991  -3.09978
  Beta  occ. eigenvalues --   -3.09946  -3.09892  -3.09846  -3.09730  -3.08366
  Beta  occ. eigenvalues --   -3.08342  -3.08291  -3.08275  -3.08250  -3.08104
  Beta  occ. eigenvalues --   -0.64438  -0.54843  -0.51917  -0.51664  -0.48327
  Beta  occ. eigenvalues --   -0.40390  -0.39298  -0.36406  -0.35613  -0.34849
  Beta  occ. eigenvalues --   -0.31227  -0.30856  -0.29586  -0.22648  -0.21090
  Beta  occ. eigenvalues --   -0.20234  -0.19229  -0.17100  -0.16691  -0.16238
  Beta  occ. eigenvalues --   -0.16059  -0.15693  -0.14794  -0.14322  -0.13306
  Beta  occ. eigenvalues --   -0.12443  -0.12002
  Beta virt. eigenvalues --    0.06736   0.07550   0.08076   0.08407   0.09712
  Beta virt. eigenvalues --    0.10150   0.10237   0.10626   0.13001   0.13416
  Beta virt. eigenvalues --    0.13587   0.14110   0.14163   0.14510   0.14736

 Mulliken atomic charges:
              1
     1  Al  -0.138775
     2  Al  -0.114923
     3  Al  -0.146323
     4  Al  -0.136330
     5  Al  -0.200354
     6  Al  -0.132339
     7  Al  -0.188101
     8  Al  -0.093274
     9  Al  -0.063610
    10  Al  -0.123289
    11  Al  -0.162795
    12  Al  -0.110221
    13  Al  -0.072943
    14  Al  -0.041782
    15  Al  -0.070155
    16  Al   0.940479
    17  Al  -0.018646
    18  Al  -0.126616
 Sum of Mulliken atomic charges =  -1.00000

 Dipole moment (field-independent basis, Debye):
    X=             -1.3536    Y=             -0.0710    Z=              2.0704  Tot=              2.4746
 Quadrupole moment (field-independent basis, Debye-Ang):
   XX=           -336.6907   YY=           -262.8004   ZZ=           -261.5080
   XY=             -0.9254   XZ=              8.0983   YZ=             -4.6867

 Normal termination of Gaussian 09 at Fri Jul 21 15:47:20 2017.
