 Gaussian 09, Revision D.01,

 ------------------------
 # hf/6-31G* test scf=xqc
 ------------------------

 --------
 Al18-n-s
 --------
 Symbolic Z-matrix:
 Charge =  0 Multiplicity = 1

 SCF Done:  E(RHF) =  -4354.24478943     A.U. after   23 cycles
 Normal termination of Gaussian 09 at Sun Oct  2 18:22:26 2016.
 Gaussian 09:  ES64L-G09RevD.01 24-Apr-2013

 --------------------------------------------------------
 # CCSD(T,conver=5)/cc-pVTZ test geom=allcheck guess=read
 --------------------------------------------------------

 Structure from the checkpoint file:  "cc-Al18-n-s.chk"
 --------
 Al18-n-s
 --------
 Charge =  0 Multiplicity = 1

                         Standard orientation:
 ---------------------------------------------------------------------
 Center     Atomic      Atomic             Coordinates (Angstroms)
 Number     Number       Type             X           Y           Z
 ---------------------------------------------------------------------
      1         13           0       -0.008744   -1.663393    2.265058
      2         13           0       -1.253831   -2.687221    0.000000
      3         13           0       -0.433858    1.064704    2.341559
      4         13           0       -0.008744   -1.663393   -2.265058
      5         13           0       -2.401372   -0.641207   -1.365659
      6         13           0        2.090642    0.006584    1.503608
      7         13           0       -2.401372   -0.641207    1.365659
      8         13           0        1.751196   -2.165601    0.000000
      9         13           0        1.551479    2.145856    0.000000
     10         13           0       -0.433858    1.064704   -2.341559
     11         13           0        2.090642    0.006584   -1.503608
     12         13           0       -2.062804    1.742408    0.000000
     13         13           0        0.587336   -4.304344    1.338778
     14         13           0       -0.441998    3.591195   -1.394905
     15         13           0        0.587336   -4.304344   -1.338778
     16         13           0       -0.113483   -0.124149    0.000000
     17         13           0       -0.441998    3.591195    1.394905
     18         13           0        1.343430    4.981628    0.000000
 ---------------------------------------------------------------------

 SCF Done:  E(RHF) =  -4354.63130304     A.U. after   18 cycles
 E2 =    -0.1776969116D+01 EUMP2 =    -0.43564082721585D+04
 CCSD(T)= -0.43564219631D+04

 The electronic state is 1-A'.
 Alpha  occ. eigenvalues --  -58.50464 -58.50464 -58.49667 -58.49667 -58.49422
 Alpha  occ. eigenvalues --  -58.49234 -58.49233 -58.49088 -58.48847 -58.48847
 Alpha  occ. eigenvalues --  -58.48806 -58.48806 -58.48459 -58.48459 -58.48253
 Alpha  occ. eigenvalues --  -58.48183 -58.46240 -58.44089  -4.91556  -4.91555
 Alpha  occ. eigenvalues --   -4.90846  -4.90846  -4.90646  -4.90515  -4.90509
 Alpha  occ. eigenvalues --   -4.90318  -4.90068  -4.90065  -4.90042  -4.90038
 Alpha  occ. eigenvalues --   -4.89630  -4.89567  -4.89549  -4.89543  -4.87332
 Alpha  occ. eigenvalues --   -4.86447  -3.22824  -3.22824  -3.22767  -3.22767
 Alpha  occ. eigenvalues --   -3.22724  -3.22724  -3.22132  -3.22132  -3.22086
 Alpha  occ. eigenvalues --   -3.22086  -3.21995  -3.21995  -3.21851  -3.21813
 Alpha  occ. eigenvalues --   -3.21765  -3.21739  -3.21729  -3.21655  -3.21635
 Alpha  occ. eigenvalues --   -3.21632  -3.21625  -3.21562  -3.21540  -3.21489
 Alpha  occ. eigenvalues --   -3.21293  -3.21287  -3.21203  -3.21194  -3.21174
 Alpha  occ. eigenvalues --   -3.21164  -3.21164  -3.21160  -3.21124  -3.21110
 Alpha  occ. eigenvalues --   -3.21058  -3.21045  -3.20902  -3.20869  -3.20846
 Alpha  occ. eigenvalues --   -3.20812  -3.20809  -3.20754  -3.20576  -3.20557
 Alpha  occ. eigenvalues --   -3.20544  -3.20538  -3.20507  -3.20472  -3.18326
 Alpha  occ. eigenvalues --   -3.18255  -3.18255  -3.17875  -3.17850  -3.17808
 Alpha  occ. eigenvalues --   -0.74700  -0.65139  -0.62503  -0.62243  -0.58406
 Alpha  occ. eigenvalues --   -0.50573  -0.49783  -0.46819  -0.46288  -0.45472
 Alpha  occ. eigenvalues --   -0.41782  -0.41341  -0.39938  -0.32744  -0.31949
 Alpha  occ. eigenvalues --   -0.30445  -0.29756  -0.27324  -0.27152  -0.26971
 Alpha  occ. eigenvalues --   -0.26247  -0.26006  -0.25988  -0.24234  -0.23604
 Alpha  occ. eigenvalues --   -0.22634  -0.22128
 Alpha virt. eigenvalues --   -0.04330  -0.03459  -0.02935  -0.01963  -0.00955
 Alpha virt. eigenvalues --   -0.00494  -0.00324  -0.00114   0.02606   0.03012
 Alpha virt. eigenvalues --    0.04120   0.04192   0.04328   0.04591   0.04976

 Mulliken charges:
               1
     1  Al  -0.081247
     2  Al  -0.066978
     3  Al  -0.098021
     4  Al  -0.081247
     5  Al  -0.119070
     6  Al  -0.080914
     7  Al  -0.119070
     8  Al  -0.061392
     9  Al  -0.019677
    10  Al  -0.098021
    11  Al  -0.080914
    12  Al  -0.104386
    13  Al   0.017196
    14  Al   0.077714
    15  Al   0.017196
    16  Al   0.826904
    17  Al   0.077714
    18  Al  -0.005786
 Sum of Mulliken charges =   0.00000

 Dipole moment (field-independent basis, Debye):
    X=             -2.4322    Y=             -1.0022    Z=              0.0000  Tot=              2.6306
 Quadrupole moment (field-independent basis, Debye-Ang):
   XX=           -231.1823   YY=           -265.1797   ZZ=           -229.5170
   XY=             -7.1549   XZ=              0.0000   YZ=              0.0000

 4356.3248207\MP4SDQ=-4356.3613948\CCSD=-4356.1962983\CCSD(T)=-4356.421
 Normal termination of Gaussian 09 at Mon Oct  3 19:48:30 2016.
