 Gaussian 09, Revision A.01,

 -------------------------
 #n hf/6-31G* test scf=xqc
 -------------------------

 -----------------
 ccsdt-Al18-c-d-01
 -----------------
 Symbolic Z-matrix:
 Charge =  1 Multiplicity = 2

 SCF Done:  E(UHF) =  -4354.06550321     A.U. after   65 cycles
 SCF Done:  E(UHF) =  -4354.06550321     a.u. after    1 cycles
 Normal termination of Gaussian 09 at Thu Jun 29 17:01:24 2017.
 Gaussian 09:  EM64L-G09RevA.01  8-May-2009

 --------------------------------------------------------
 # ccsd(t,conver=5)/cc-pvtz test geom=allcheck guess=read
 --------------------------------------------------------

 ccsdt-Al18-c-d-01
 -----------------
 Z-Matrix taken from the checkpoint file:
 ccsdt-Al18-c-d.chk
 Charge =  1 Multiplicity = 2

                         Standard orientation:
 ---------------------------------------------------------------------
 Center     Atomic      Atomic             Coordinates (Angstroms)
 Number     Number       Type             X           Y           Z
 ---------------------------------------------------------------------
      1         13           0        1.658800    2.288300   -0.134593
      2         13           0        2.640076    0.036629    1.304078
      3         13           0       -1.058511    2.373399    0.290778
      4         13           0        1.667158   -2.285794   -0.003272
      5         13           0        0.632314   -1.337375    2.423248
      6         13           0       -0.026680    1.426812   -2.183872
      7         13           0        0.634787    1.477844    2.339654
      8         13           0        2.149260   -0.046712   -1.762669
      9         13           0       -2.144177   -0.050926   -1.534678
     10         13           0       -1.049361   -2.355502    0.421321
     11         13           0       -0.019617   -1.548146   -2.101169
     12         13           0       -1.646756    0.065922    2.130927
     13         13           0        4.247612    1.283869   -0.557917
     14         13           0       -3.535541   -1.310805    0.609066
     15         13           0        4.259165   -1.314145   -0.487199
     16         13           0        0.126003    0.002949    0.095407
     17         13           0       -3.541848    1.338309    0.532567
     18         13           0       -4.992683   -0.044628   -1.381676
 ---------------------------------------------------------------------

 SCF Done:  E(UHF) =  -4354.45430503     A.U. after   32 cycles
 E2 =    -0.1697940661D+01 EUMP2 =    -0.43561522456866D+04
 CCSD(T)= -0.43561990841D+04

 The electronic state is 2-A.
 Alpha  occ. eigenvalues --  -58.61332 -58.61297 -58.61268 -58.61243 -58.60539
 Alpha  occ. eigenvalues --  -58.60491 -58.59985 -58.59958 -58.59915 -58.59876
 Alpha  occ. eigenvalues --  -58.59789 -58.59735 -58.59587 -58.59586 -58.59266
 Alpha  occ. eigenvalues --  -58.59072 -58.58918 -58.54828  -5.02488  -5.02454
 Alpha  occ. eigenvalues --   -5.02305  -5.02277  -5.01687  -5.01648  -5.01206
 Alpha  occ. eigenvalues --   -5.01183  -5.01170  -5.01056  -5.00990  -5.00960
 Alpha  occ. eigenvalues --   -5.00828  -5.00824  -5.00596  -5.00419  -4.99934
 Alpha  occ. eigenvalues --   -4.97141  -3.33805  -3.33766  -3.33679  -3.33638
 Alpha  occ. eigenvalues --   -3.33601  -3.33572  -3.33570  -3.33549  -3.33540
 Alpha  occ. eigenvalues --   -3.33519  -3.33454  -3.33423  -3.33040  -3.32986
 Alpha  occ. eigenvalues --   -3.32845  -3.32804  -3.32585  -3.32515  -3.32445
 Alpha  occ. eigenvalues --   -3.32431  -3.32417  -3.32402  -3.32364  -3.32348
 Alpha  occ. eigenvalues --   -3.32323  -3.32270  -3.32256  -3.32238  -3.32234
 Alpha  occ. eigenvalues --   -3.32218  -3.32180  -3.32158  -3.32061  -3.32056
 Alpha  occ. eigenvalues --   -3.32037  -3.31959  -3.31948  -3.31941  -3.31910
 Alpha  occ. eigenvalues --   -3.31898  -3.31892  -3.31890  -3.31837  -3.31796
 Alpha  occ. eigenvalues --   -3.31725  -3.31716  -3.31673  -3.31615  -3.30956
 Alpha  occ. eigenvalues --   -3.30811  -3.30730  -3.28580  -3.28541  -3.28515
 Alpha  occ. eigenvalues --   -0.85308  -0.76271  -0.73102  -0.72993  -0.69795
 Alpha  occ. eigenvalues --   -0.61627  -0.60832  -0.57904  -0.57513  -0.55894
 Alpha  occ. eigenvalues --   -0.52748  -0.52485  -0.51115  -0.44308  -0.42899
 Alpha  occ. eigenvalues --   -0.42459  -0.41392  -0.38266  -0.38081  -0.37576
 Alpha  occ. eigenvalues --   -0.37316  -0.36707  -0.36495  -0.35825  -0.34939
 Alpha  occ. eigenvalues --   -0.34763  -0.34280
 Alpha virt. eigenvalues --   -0.14471  -0.14063  -0.13194  -0.12464  -0.11367
 Alpha virt. eigenvalues --   -0.10728  -0.10675  -0.10394  -0.07757  -0.07448
 Alpha virt. eigenvalues --   -0.06151  -0.06137  -0.05795  -0.05637  -0.04974

  Beta  occ. eigenvalues --  -58.61316 -58.61298 -58.61132 -58.61102 -58.60553
  Beta  occ. eigenvalues --  -58.60504 -58.60029 -58.60006 -58.59961 -58.59742
  Beta  occ. eigenvalues --  -58.59616 -58.59601 -58.59599 -58.59554 -58.59279
  Beta  occ. eigenvalues --  -58.59106 -58.58849 -58.54790  -5.02387  -5.02373
  Beta  occ. eigenvalues --   -5.02144  -5.02116  -5.01740  -5.01691  -5.01275
  Beta  occ. eigenvalues --   -5.01267  -5.01251  -5.01007  -5.00843  -5.00839
  Beta  occ. eigenvalues --   -5.00660  -5.00541  -5.00498  -5.00490  -4.99854
  Beta  occ. eigenvalues --   -4.97090  -3.33754  -3.33741  -3.33581  -3.33562
  Beta  occ. eigenvalues --   -3.33489  -3.33468  -3.33466  -3.33438  -3.33415
  Beta  occ. eigenvalues --   -3.33389  -3.33228  -3.33212  -3.32997  -3.32924
  Beta  occ. eigenvalues --   -3.32847  -3.32804  -3.32574  -3.32544  -3.32507
  Beta  occ. eigenvalues --   -3.32492  -3.32477  -3.32461  -3.32443  -3.32419
  Beta  occ. eigenvalues --   -3.32380  -3.32361  -3.32353  -3.32243  -3.32229
  Beta  occ. eigenvalues --   -3.32174  -3.32068  -3.32059  -3.31983  -3.31978
  Beta  occ. eigenvalues --   -3.31966  -3.31961  -3.31888  -3.31850  -3.31808
  Beta  occ. eigenvalues --   -3.31798  -3.31780  -3.31778  -3.31738  -3.31724
  Beta  occ. eigenvalues --   -3.31710  -3.31645  -3.31569  -3.31491  -3.30737
  Beta  occ. eigenvalues --   -3.30683  -3.30529  -3.28501  -3.28491  -3.28407
  Beta  occ. eigenvalues --   -0.85301  -0.75998  -0.73501  -0.72782  -0.69252
  Beta  occ. eigenvalues --   -0.60538  -0.60039  -0.57968  -0.57172  -0.56448
  Beta  occ. eigenvalues --   -0.52319  -0.51178  -0.50491  -0.43588  -0.43170
  Beta  occ. eigenvalues --   -0.40412  -0.38868  -0.38205  -0.37709  -0.37159
  Beta  occ. eigenvalues --   -0.36996  -0.36742  -0.36378  -0.35349  -0.34290
  Beta  occ. eigenvalues --   -0.32994
  Beta virt. eigenvalues --   -0.14408  -0.13919  -0.13301  -0.13217  -0.11794
  Beta virt. eigenvalues --   -0.11219  -0.10817  -0.10524  -0.09025  -0.07618
  Beta virt. eigenvalues --   -0.07066  -0.05776  -0.05695  -0.05629  -0.05391

 Mulliken atomic charges:
              1
     1  Al  -0.030851
     2  Al  -0.039007
     3  Al  -0.000479
     4  Al  -0.030894
     5  Al  -0.026587
     6  Al  -0.013003
     7  Al  -0.027180
     8  Al  -0.042258
     9  Al  -0.047263
    10  Al   0.002157
    11  Al  -0.012671
    12  Al  -0.061994
    13  Al   0.144437
    14  Al   0.125891
    15  Al   0.139628
    16  Al   0.651670
    17  Al   0.126210
    18  Al   0.142194
 Sum of Mulliken atomic charges =   1.00000

 Dipole moment (field-independent basis, Debye):
    X=             -0.3992    Y=              0.0617    Z=              1.4557  Tot=              1.5107
 Quadrupole moment (field-independent basis, Debye-Ang):
   XX=           -187.3455   YY=           -202.6778   ZZ=           -205.6164
   XY=             -0.2244   XZ=             -4.8078   YZ=             -0.0610

 Normal termination of Gaussian 09 at Fri Jul  7 08:22:28 2017.
