 Gaussian 09, Revision D.01,

 ------------------------
 # hf/6-31G* test scf=xqc
 ------------------------

 -------
 Al3-n-q
 -------
 Symbolic Z-matrix:
 Charge =  0 Multiplicity = 4

 SCF Done:  E(UHF) =  -725.636919960     A.U. after   23 cycles
 Normal termination of Gaussian 09 at Wed Oct 12 05:04:18 2016.
 Gaussian 09:  ES64L-G09RevD.01 24-Apr-2013

 ----------------------------------------------------------------
 # CCSD(T,conver=5)/cc-pVTZ test geom=allcheck guess=read scf=xqc
 ----------------------------------------------------------------

 Structure from the checkpoint file:  "cc-Al3-n-q.chk"
 -------
 Al3-n-q
 -------
 Charge =  0 Multiplicity = 4

                         Standard orientation:
 ---------------------------------------------------------------------
 Center     Atomic      Atomic             Coordinates (Angstroms)
 Number     Number       Type             X           Y           Z
 ---------------------------------------------------------------------
      1         13           0        0.000000    0.000000    1.412939
      2         13           0        0.000000    1.516743   -0.706470
      3         13           0        0.000000   -1.516743   -0.706470
 ---------------------------------------------------------------------

 SCF Done:  E(UHF) =  -725.706367729     A.U. after   22 cycles
 E2 =    -0.1655989496D+00 EUMP2 =    -0.72587196667814D+03
 CCSD(T)= -0.72591701541D+03

 The electronic state is 4-A2.
 Alpha  occ. eigenvalues --  -58.50169 -58.50169 -58.47398  -4.91240  -4.91237
 Alpha  occ. eigenvalues --   -4.88705  -3.22610  -3.22599  -3.22224  -3.22222
 Alpha  occ. eigenvalues --   -3.22104  -3.22098  -3.20007  -3.19882  -3.19824
 Alpha  occ. eigenvalues --   -0.59275  -0.42168  -0.37063  -0.25514  -0.24279
 Alpha  occ. eigenvalues --   -0.24182
 Alpha virt. eigenvalues --   -0.00828   0.02072   0.04464   0.07627   0.09945
 Alpha virt. eigenvalues --    0.10794   0.16094   0.18624   0.19371   0.21511
 Alpha virt. eigenvalues --    0.22067   0.23376   0.24654   0.25190   0.25200

  Beta  occ. eigenvalues --  -58.49869 -58.49869 -58.47046  -4.90884  -4.90883
  Beta  occ. eigenvalues --   -4.88305  -3.21780  -3.21774  -3.21679  -3.21678
  Beta  occ. eigenvalues --   -3.21238  -3.21230  -3.19101  -3.19068  -3.18810
  Beta  occ. eigenvalues --   -0.48406  -0.32910  -0.29360
  Beta virt. eigenvalues --    0.00097   0.00708   0.01786   0.02494   0.07083
  Beta virt. eigenvalues --    0.08979   0.10487   0.11920   0.14049   0.21411
  Beta virt. eigenvalues --    0.24206   0.24303   0.26275   0.26538   0.26955

 Mulliken charges and spin densities:
               1          2
     1  Al  -0.114631   1.135860
     2  Al   0.057315   0.932070
     3  Al   0.057315   0.932070
 Sum of Mulliken charges =   0.00000   3.00000

 Dipole moment (field-independent basis, Debye):
    X=              0.0000    Y=              0.0000    Z=             -0.2455  Tot=              0.2455
 Quadrupole moment (field-independent basis, Debye-Ang):
   XX=            -41.3276   YY=            -42.6188   ZZ=            -42.6567
   XY=              0.0000   XZ=              0.0000   YZ=              0.0000

 1\1\GINC-R1I0N1\SP\UCCSD(T)-FC\CC-pVTZ\Al3(4)\VSC31064\12-Oct-2016\0\\
 # CCSD(T,conver=5)/cc-pVTZ test geom=allcheck guess=read scf=xqc\\Al3-
 n-q\\0,4\Al,0,0.,0.,1.412939\Al,0,0.,1.516743,-0.70647\Al,0,0.,-1.5167
 43,-0.70647\\Version=ES64L-G09RevD.01\State=4-A2\HF=-725.7063677\MP2=-
 725.8719667\MP3=-725.8994358\MP4D=-725.9087714\MP4DQ=-725.8991561\PUHF
 =-725.7089976\PMP2-0=-725.8738284\PMP3-0=-725.9005241\MP4SDQ=-725.9012
 604\CCSD=-725.9013987\CCSD(T)=-725.9170154\S2=3.795518\S2-1=3.768656\S
 2A=3.750653\RMSD=3.948e-09\PG=C02V [C2(Al1),SGV(Al2)]\\@

 Normal termination of Gaussian 09 at Wed Oct 12 05:04:30 2016.
