 Gaussian 09, Revision D.01,

 ------------------------
 # hf/6-31G* test scf=xqc
 ------------------------

 -------
 Al3-a-t
 -------
 Symbolic Z-matrix:
 Charge = -1 Multiplicity = 3

 SCF Done:  E(UHF) =  -725.659678483     A.U. after   49 cycles
 Normal termination of Gaussian 09 at Wed Oct 12 05:17:07 2016.
 Gaussian 09:  ES64L-G09RevD.01 24-Apr-2013

 ----------------------------------------------------------------
 # CCSD(T,conver=5)/cc-pVTZ test geom=allcheck guess=read scf=xqc
 ----------------------------------------------------------------

 Structure from the checkpoint file:  "cc-Al3-a-t.chk"
 -------
 Al3-a-t
 -------
 Charge = -1 Multiplicity = 3

                         Standard orientation:
 ---------------------------------------------------------------------
 Center     Atomic      Atomic             Coordinates (Angstroms)
 Number     Number       Type             X           Y           Z
 ---------------------------------------------------------------------
      1         13           0        1.378157   -0.707468    0.000000
      2         13           0        0.000000    1.414831    0.000000
      3         13           0       -1.378157   -0.707363    0.000000
 ---------------------------------------------------------------------

 SCF Done:  E(UHF) =  -725.726750933     A.U. after   42 cycles
 E2 =    -0.2039512072D+00 EUMP2 =    -0.72593070214050D+03
 CCSD(T)= -0.72597725571D+03

 The electronic state is 3-A'.
 Alpha  occ. eigenvalues --  -58.31898 -58.31896 -58.29274  -4.73040  -4.73034
 Alpha  occ. eigenvalues --   -4.70717  -3.04561  -3.04535  -3.03993  -3.03976
 Alpha  occ. eigenvalues --   -3.03892  -3.03887  -3.02108  -3.02105  -3.01734
 Alpha  occ. eigenvalues --   -0.41078  -0.22913  -0.20240  -0.09747  -0.06636
 Alpha  occ. eigenvalues --   -0.05205
 Alpha virt. eigenvalues --    0.15387   0.19951   0.20703   0.22540   0.23451
 Alpha virt. eigenvalues --    0.25393   0.33201   0.35271   0.35595   0.36634
 Alpha virt. eigenvalues --    0.38274   0.39384   0.40911   0.42859   0.43211

  Beta  occ. eigenvalues --  -58.31733 -58.31731 -58.28886  -4.72857  -4.72853
  Beta  occ. eigenvalues --   -4.70231  -3.03933  -3.03929  -3.03920  -3.03901
  Beta  occ. eigenvalues --   -3.03315  -3.03294  -3.01258  -3.01040  -3.00901
  Beta  occ. eigenvalues --   -0.35146  -0.15522  -0.13259  -0.04881
  Beta virt. eigenvalues --    0.15897   0.17437   0.18471   0.20385   0.22595
  Beta virt. eigenvalues --    0.24162   0.24815   0.28409   0.35228   0.37497
  Beta virt. eigenvalues --    0.39262   0.41027   0.41942   0.42422   0.42712

 Mulliken charges and spin densities:
               1          2
     1  Al  -0.304545   0.414529
     2  Al  -0.390734   1.173429
     3  Al  -0.304721   0.412042
 Sum of Mulliken charges =  -1.00000   2.00000

 Dipole moment (field-independent basis, Debye):
    X=              0.0012    Y=              0.2705    Z=              0.0000  Tot=              0.2705
 Quadrupole moment (field-independent basis, Debye-Ang):
   XX=            -57.8521   YY=            -58.1138   ZZ=            -55.2256
   XY=             -0.0020   XZ=              0.0000   YZ=              0.0000

 527671\CCSD=-725.9550014\CCSD(T)=-725.9772557\S2=2.177768\S2-1=2.12416
 Normal termination of Gaussian 09 at Wed Oct 12 05:17:37 2016.
