 Gaussian 09, Revision D.01,

 ------------------------
 # hf/6-31G* test scf=xqc
 ------------------------

 -------
 Al3-c-s
 -------
 Symbolic Z-matrix:
 Charge =  1 Multiplicity = 1

 SCF Done:  E(RHF) =  -725.386636235     A.U. after   10 cycles
 Normal termination of Gaussian 09 at Wed Oct 12 05:19:41 2016.
 Gaussian 09:  ES64L-G09RevD.01 24-Apr-2013

 ----------------------------------------------------------------
 # CCSD(T,conver=5)/cc-pVTZ test geom=allcheck guess=read scf=xqc
 ----------------------------------------------------------------

 Structure from the checkpoint file:  "cc-Al3-c-s.chk"
 -------
 Al3-c-s
 -------
 Charge =  1 Multiplicity = 1

                         Standard orientation:
 ---------------------------------------------------------------------
 Center     Atomic      Atomic             Coordinates (Angstroms)
 Number     Number       Type             X           Y           Z
 ---------------------------------------------------------------------
      1         13           0        0.000000    1.485852    0.000000
      2         13           0        1.286786   -0.742926    0.000000
      3         13           0       -1.286786   -0.742926    0.000000
 ---------------------------------------------------------------------

 SCF Done:  E(RHF) =  -725.455488240     A.U. after   10 cycles
 E2 =    -0.1867054878D+00 EUMP2 =    -0.72564219372802D+03
 CCSD(T)= -0.72567985828D+03

 The electronic state is 1-A1'.
 Alpha  occ. eigenvalues --  -58.70431 -58.70431 -58.70431  -5.11404  -5.11392
 Alpha  occ. eigenvalues --   -5.11392  -3.42320  -3.42244  -3.42244  -3.42189
 Alpha  occ. eigenvalues --   -3.42189  -3.42170  -3.42145  -3.42133  -3.42133
 Alpha  occ. eigenvalues --   -0.75183  -0.52623  -0.52623  -0.40293
 Alpha virt. eigenvalues --   -0.20294  -0.17901  -0.17901  -0.10974  -0.10974
 Alpha virt. eigenvalues --   -0.04143  -0.04143  -0.02797   0.02589   0.04737
 Alpha virt. eigenvalues --    0.05232   0.08082   0.08669   0.08669   0.09942

 Mulliken charges:
               1
     1  Al   0.333333
     2  Al   0.333333
     3  Al   0.333333
 Sum of Mulliken charges =   1.00000

 Dipole moment (field-independent basis, Debye):
    X=              0.0000    Y=              0.0000    Z=              0.0000  Tot=              0.0000
 Quadrupole moment (field-independent basis, Debye-Ang):
   XX=            -18.1158   YY=            -18.1158   ZZ=            -41.1129
   XY=              0.0000   XZ=              0.0000   YZ=              0.0000

 MP4SDQ=-725.6608907\CCSD=-725.6606889\CCSD(T)=-725.6798583\RMSD=2.330e
 Normal termination of Gaussian 09 at Wed Oct 12 05:19:58 2016.
