 Gaussian 09, Revision D.01,

 ------------------------
 # hf/6-31G* test scf=xqc
 ------------------------

 -------
 Al3-c-t
 -------
 Symbolic Z-matrix:
 Charge =  1 Multiplicity = 3

 SCF Done:  E(UHF) =  -725.423463747     A.U. after   14 cycles
 Normal termination of Gaussian 09 at Wed Oct 12 05:08:40 2016.
 Gaussian 09:  ES64L-G09RevD.01 24-Apr-2013

 ----------------------------------------------------------------
 # CCSD(T,conver=5)/cc-pVTZ test geom=allcheck guess=read scf=xqc
 ----------------------------------------------------------------

 Structure from the checkpoint file:  "cc-Al3-c-t.chk"
 -------
 Al3-c-t
 -------
 Charge =  1 Multiplicity = 3

                         Standard orientation:
 ---------------------------------------------------------------------
 Center     Atomic      Atomic             Coordinates (Angstroms)
 Number     Number       Type             X           Y           Z
 ---------------------------------------------------------------------
      1         13           0        0.000000    1.576474    0.000000
      2         13           0        1.365267   -0.788237    0.000000
      3         13           0       -1.365267   -0.788237    0.000000
 ---------------------------------------------------------------------

 SCF Done:  E(UHF) =  -725.496393152     A.U. after   13 cycles
 E2 =    -0.1408764254D+00 EUMP2 =    -0.72563726957727D+03
 CCSD(T)= -0.72568724189D+03

 The electronic state is 3-A2".
 Alpha  occ. eigenvalues --  -58.70025 -58.70025 -58.70025  -5.11027  -5.11017
 Alpha  occ. eigenvalues --   -5.11017  -3.42169  -3.42119  -3.42119  -3.41989
 Alpha  occ. eigenvalues --   -3.41982  -3.41982  -3.41602  -3.41602  -3.41585
 Alpha  occ. eigenvalues --   -0.75874  -0.56488  -0.56488  -0.43594  -0.42109
 Alpha virt. eigenvalues --   -0.18045  -0.18045  -0.13467  -0.13467  -0.05168
 Alpha virt. eigenvalues --   -0.05168  -0.04136  -0.00218   0.02554   0.04852
 Alpha virt. eigenvalues --    0.06827   0.07946   0.07946   0.08474   0.08474

  Beta  occ. eigenvalues --  -58.69716 -58.69716 -58.69716  -5.10526  -5.10521
  Beta  occ. eigenvalues --   -5.10521  -3.41669  -3.41669  -3.41647  -3.41283
  Beta  occ. eigenvalues --   -3.41276  -3.41276  -3.41139  -3.41090  -3.41090
  Beta  occ. eigenvalues --   -0.70562  -0.51061  -0.51061
  Beta virt. eigenvalues --   -0.17109  -0.17032  -0.17032  -0.15589  -0.08090
  Beta virt. eigenvalues --   -0.08090  -0.03498  -0.03498  -0.02172   0.04639
  Beta virt. eigenvalues --    0.05681   0.07754   0.09349   0.09349   0.10069

 Mulliken charges and spin densities:
               1          2
     1  Al   0.333333   0.666667
     2  Al   0.333333   0.666667
     3  Al   0.333333   0.666667
 Sum of Mulliken charges =   1.00000   2.00000

 Dipole moment (field-independent basis, Debye):
    X=              0.0000    Y=              0.0000    Z=              0.0000  Tot=              0.0000
 Quadrupole moment (field-independent basis, Debye-Ang):
   XX=            -24.1136   YY=            -24.1136   ZZ=            -35.3665
   XY=              0.0000   XZ=              0.0000   YZ=              0.0000

 66974\CCSD=-725.6727667\CCSD(T)=-725.6872419\S2=2.34086\S2-1=2.27299\S
 Normal termination of Gaussian 09 at Wed Oct 12 05:08:56 2016.
