 Gaussian 09, Revision D.01,

 ------------------------
 # hf/6-31G* test scf=xqc
 ------------------------

 -------
 Al3-a-s
 -------
 Symbolic Z-matrix:
 Charge = -1 Multiplicity = 1

 SCF Done:  E(RHF) =  -725.645776793     A.U. after   11 cycles
 Normal termination of Gaussian 09 at Wed Oct 12 05:17:58 2016.
 Gaussian 09:  ES64L-G09RevD.01 24-Apr-2013

 ----------------------------------------------------------------
 # CCSD(T,conver=5)/cc-pVTZ test geom=allcheck guess=read scf=xqc
 ----------------------------------------------------------------

 Structure from the checkpoint file:  "cc-Al3-a-s.chk"
 -------
 Al3-a-s
 -------
 Charge = -1 Multiplicity = 1

                         Standard orientation:
 ---------------------------------------------------------------------
 Center     Atomic      Atomic             Coordinates (Angstroms)
 Number     Number       Type             X           Y           Z
 ---------------------------------------------------------------------
      1         13           0        0.000000    1.465163    0.000000
      2         13           0       -1.268868   -0.732581    0.000000
      3         13           0        1.268868   -0.732581    0.000000
 ---------------------------------------------------------------------

 SCF Done:  E(RHF) =  -725.711877054     A.U. after   11 cycles
 E2 =    -0.2317628357D+00 EUMP2 =    -0.72594363988953D+03
 CCSD(T)= -0.72599014678D+03

 Unable to determine electronic state:  an orbital has unidentified symmetry.
 Alpha  occ. eigenvalues --  -58.31388 -58.31388 -58.31388  -4.72692  -4.72674
 Alpha  occ. eigenvalues --   -4.72674  -3.03735  -3.03735  -3.03725  -3.03685
 Alpha  occ. eigenvalues --   -3.03638  -3.03623  -3.03623  -3.03612  -3.03612
 Alpha  occ. eigenvalues --   -0.39903  -0.18072  -0.18072  -0.06029  -0.05772
 Alpha virt. eigenvalues --    0.14793   0.14793   0.20537   0.20537   0.23496
 Alpha virt. eigenvalues --    0.23496   0.27072   0.33710   0.35778   0.35922
 Alpha virt. eigenvalues --    0.39420   0.39420   0.40088   0.42122   0.42122

 Mulliken charges:
               1
     1  Al  -0.333333
     2  Al  -0.333333
     3  Al  -0.333333
 Sum of Mulliken charges =  -1.00000

 Dipole moment (field-independent basis, Debye):
    X=              0.0000    Y=              0.0000    Z=              0.0000  Tot=              0.0000
 Quadrupole moment (field-independent basis, Debye-Ang):
   XX=            -60.3585   YY=            -60.3585   ZZ=            -55.4590
   XY=              0.0000   XZ=              0.0000   YZ=              0.0000

 .9640745\CCSD=-725.9643675\CCSD(T)=-725.9901468\RMSD=4.507e-09\PG=D03H
 Normal termination of Gaussian 09 at Wed Oct 12 05:18:07 2016.
