 Gaussian 09, Revision D.01,

 ------------------------
 # hf/6-31G* test scf=xqc
 ------------------------

 -------
 Al5-n-d
 -------
 Symbolic Z-matrix:
 Charge =  0 Multiplicity = 2

 SCF Done:  E(UHF) =  -725.621217430     A.U. after   15 cycles
 Normal termination of Gaussian 09 at Wed Oct 12 05:02:37 2016.
 Gaussian 09:  ES64L-G09RevD.01 24-Apr-2013

 ----------------------------------------------------------------
 # CCSD(T,conver=5)/cc-pVTZ test geom=allcheck guess=read scf=xqc
 ----------------------------------------------------------------

 Structure from the checkpoint file:  "cc-Al3-n-d.chk"
 -------
 Al5-n-d
 -------
 Charge =  0 Multiplicity = 2

                         Standard orientation:
 ---------------------------------------------------------------------
 Center     Atomic      Atomic             Coordinates (Angstroms)
 Number     Number       Type             X           Y           Z
 ---------------------------------------------------------------------
      1         13           0        0.000000    1.524684    0.000000
      2         13           0       -1.320415   -0.762342    0.000000
      3         13           0        1.320415   -0.762342    0.000000
 ---------------------------------------------------------------------

 SCF Done:  E(UHF) =  -725.690543325     A.U. after   14 cycles
 E2 =    -0.1791431153D+00 EUMP2 =    -0.72586968644031D+03
 CCSD(T)= -0.72592330917D+03

 Unable to determine electronic state:  an orbital has unidentified symmetry.
 Alpha  occ. eigenvalues --  -58.50332 -58.50332 -58.50332  -4.91440  -4.91427
 Alpha  occ. eigenvalues --   -4.91427  -3.22778  -3.22708  -3.22708  -3.22276
 Alpha  occ. eigenvalues --   -3.22266  -3.22266  -3.22170  -3.22170  -3.22144
 Alpha  occ. eigenvalues --   -0.56124  -0.37746  -0.37746  -0.26436  -0.21570
 Alpha virt. eigenvalues --   -0.00575  -0.00575   0.04527   0.04527   0.09704
 Alpha virt. eigenvalues --    0.09704   0.11590   0.17775   0.20136   0.20643
 Alpha virt. eigenvalues --    0.23285   0.23509   0.23509   0.26530   0.26530

  Beta  occ. eigenvalues --  -58.50134 -58.50134 -58.50134  -4.91109  -4.91099
  Beta  occ. eigenvalues --   -4.91099  -3.22338  -3.22338  -3.22306  -3.22135
  Beta  occ. eigenvalues --   -3.22124  -3.22124  -3.21749  -3.21679  -3.21679
  Beta  occ. eigenvalues --   -0.54870  -0.33631  -0.33631  -0.21835
  Beta virt. eigenvalues --   -0.00159  -0.00159   0.00747   0.05802   0.05802
  Beta virt. eigenvalues --    0.10494   0.10494   0.13279   0.19199   0.21737
  Beta virt. eigenvalues --    0.21960   0.24696   0.24696   0.26049   0.26049

 Mulliken charges and spin densities:
               1          2
     1  Al   0.000000   0.333333
     2  Al   0.000000   0.333333
     3  Al   0.000000   0.333333
 Sum of Mulliken charges =   0.00000   1.00000

 Dipole moment (field-independent basis, Debye):
    X=              0.0000    Y=              0.0000    Z=              0.0000  Tot=              0.0000
 Quadrupole moment (field-independent basis, Debye-Ang):
   XX=            -37.7204   YY=            -37.7204   ZZ=            -47.9207
   XY=              0.0000   XZ=              0.0000   YZ=              0.0000

 1\1\GINC-R1I0N3\SP\UCCSD(T)-FC\CC-pVTZ\Al3(2)\VSC31064\12-Oct-2016\0\\
 # CCSD(T,conver=5)/cc-pVTZ test geom=allcheck guess=read scf=xqc\\Al5-
 n-d\\0,2\Al,0,0.,1.524684,0.\Al,0,1.320415,-0.762342,0.\Al,0,-1.320415
 ,-0.762342,0.\\Version=ES64L-G09RevD.01\HF=-725.6905433\MP2=-725.86968
 64\MP3=-725.8928831\MP4D=-725.9022307\MP4DQ=-725.8909098\PUHF=-725.706
 1295\PMP2-0=-725.8837638\PMP3-0=-725.9042961\MP4SDQ=-725.895298\CCSD=-
 725.9024553\CCSD(T)=-725.9233092\S2=1.168488\S2-1=1.073129\S2A=0.87415
 1\RMSD=2.008e-09\PG=D03H [3C2(Al1)]\\@

 Normal termination of Gaussian 09 at Wed Oct 12 05:02:49 2016.
