 Gaussian 09, Revision D.01,

 ------------------------
 # hf/6-31G* test scf=xqc
 ------------------------

 -------
 Al4-c-d
 -------
 Symbolic Z-matrix:
 Charge =  1 Multiplicity = 2

 SCF Done:  E(UHF) =  -967.287731776     A.U. after   17 cycles
 Normal termination of Gaussian 09 at Tue Oct  4 06:54:57 2016.
 Gaussian 09:  ES64L-G09RevD.01 24-Apr-2013

 --------------------------------------------------------
 # CCSD(T,conver=5)/cc-pVTZ test geom=allcheck guess=read
 --------------------------------------------------------

 Structure from the checkpoint file:  "cc-Al4-c-d.chk"
 -------
 Al4-c-d
 -------
 Charge =  1 Multiplicity = 2

                         Standard orientation:
 ---------------------------------------------------------------------
 Center     Atomic      Atomic             Coordinates (Angstroms)
 Number     Number       Type             X           Y           Z
 ---------------------------------------------------------------------
      1         13           0        0.000000    0.000000    2.290311
      2         13           0        0.000000    1.324613    0.000000
      3         13           0        0.000000    0.000000   -2.290311
      4         13           0        0.000000   -1.324613    0.000000
 ---------------------------------------------------------------------

 SCF Done:  E(UHF) =  -967.380367994     A.U. after   16 cycles
 E2 =    -0.2554157005D+00 EUMP2 =    -0.96763578369491D+03
 CCSD(T)= -0.96768940979D+03

 The electronic state is 2-B3G.
 Alpha  occ. eigenvalues --  -58.68026 -58.68026 -58.67388 -58.67388  -5.08937
 Alpha  occ. eigenvalues --   -5.08937  -5.08476  -5.08470  -3.40080  -3.40078
 Alpha  occ. eigenvalues --   -3.39841  -3.39816  -3.39761  -3.39741  -3.39731
 Alpha  occ. eigenvalues --   -3.39730  -3.39501  -3.39443  -3.39361  -3.39354
 Alpha  occ. eigenvalues --   -0.77623  -0.64346  -0.55377  -0.44589  -0.42772
 Alpha  occ. eigenvalues --   -0.39225
 Alpha virt. eigenvalues --   -0.19443  -0.17930  -0.14278  -0.10849  -0.10233
 Alpha virt. eigenvalues --   -0.05087  -0.04285  -0.03278  -0.02974   0.00620
 Alpha virt. eigenvalues --    0.02192   0.06093   0.06551   0.07356   0.07707

  Beta  occ. eigenvalues --  -58.67949 -58.67949 -58.67354 -58.67354  -5.08902
  Beta  occ. eigenvalues --   -5.08901  -5.08528  -5.08522  -3.39743  -3.39743
  Beta  occ. eigenvalues --   -3.39697  -3.39697  -3.39469  -3.39416  -3.39394
  Beta  occ. eigenvalues --   -3.39388  -3.39313  -3.39310  -3.39062  -3.39056
  Beta  occ. eigenvalues --   -0.73209  -0.58602  -0.50920  -0.45333  -0.38811
  Beta virt. eigenvalues --   -0.18930  -0.18073  -0.16969  -0.13726  -0.10515
  Beta virt. eigenvalues --   -0.07332  -0.05611  -0.03516  -0.02066  -0.01392
  Beta virt. eigenvalues --    0.02550   0.02662   0.06151   0.07879   0.08478

 Mulliken charges and spin densities:
               1          2
     1  Al   0.320586   0.306738
     2  Al   0.179414   0.193262
     3  Al   0.320586   0.306738
     4  Al   0.179414   0.193262
 Sum of Mulliken charges =   1.00000   1.00000

 Dipole moment (field-independent basis, Debye):
    X=              0.0000    Y=              0.0000    Z=              0.0000  Tot=              0.0000
 Quadrupole moment (field-independent basis, Debye-Ang):
   XX=            -52.0080   YY=            -33.5767   ZZ=            -20.5700
   XY=              0.0000   XZ=              0.0000   YZ=              0.0000

 6584724\CCSD=-967.6595134\CCSD(T)=-967.6894098\S2=0.879015\S2-1=0.8296
 Normal termination of Gaussian 09 at Tue Oct  4 06:56:55 2016.
