 Gaussian 09, Revision D.01,

 ------------------------
 # hf/6-31G* test scf=xqc
 ------------------------

 -------
 Al4-n-t
 -------
 Symbolic Z-matrix:
 Charge =  0 Multiplicity = 3

 SCF Done:  E(UHF) =  -967.504676791     A.U. after   15 cycles
 Normal termination of Gaussian 09 at Sun Feb 21 01:23:59 2021.
 Gaussian 09:  EM64L-G09RevD.01 24-Apr-2013

 --------------------------------------------------------
 # CCSD(T,conver=5)/cc-pVTZ test geom=allcheck guess=read
 --------------------------------------------------------

 Structure from the checkpoint file:  "cc-Al4.chk"
 -------
 Al4-n-t
 -------
 Charge =  0 Multiplicity = 3

                         Standard orientation:
 ---------------------------------------------------------------------
 Center     Atomic      Atomic             Coordinates (Angstroms)
 Number     Number       Type             X           Y           Z
 ---------------------------------------------------------------------
      1         13           0        0.000000    0.000000    2.121651
      2         13           0        0.000000    1.464001    0.000000
      3         13           0        0.000000    0.000000   -2.121651
      4         13           0        0.000000   -1.464001    0.000000
 ---------------------------------------------------------------------

 SCF Done:  E(UHF) =  -967.595848247     A.U. after   14 cycles
 E2 =    -0.2895484751D+00 EUMP2 =    -0.96788539672256D+03
 CCSD(T)= -0.96793151625D+03

 The electronic state is 3-B3G.
 Alpha  occ. eigenvalues --  -58.50788 -58.50788 -58.48455 -58.48455  -4.91877
 Alpha  occ. eigenvalues --   -4.91877  -4.89805  -4.89801  -3.22999  -3.22998
 Alpha  occ. eigenvalues --   -3.22789  -3.22788  -3.22690  -3.22689  -3.21078
 Alpha  occ. eigenvalues --   -3.21056  -3.21051  -3.21050  -3.20641  -3.20639
 Alpha  occ. eigenvalues --   -0.61585  -0.47300  -0.43572  -0.27529  -0.26756
 Alpha  occ. eigenvalues --   -0.25459  -0.22782
 Alpha virt. eigenvalues --   -0.02989   0.00665   0.01577   0.03358   0.08147
 Alpha virt. eigenvalues --    0.08896   0.10258   0.11711   0.15557   0.16795
 Alpha virt. eigenvalues --    0.19370   0.19741   0.20771   0.22305   0.22324

  Beta  occ. eigenvalues --  -58.50701 -58.50701 -58.48151 -58.48151  -4.91795
  Beta  occ. eigenvalues --   -4.91794  -4.89400  -4.89397  -3.22669  -3.22669
  Beta  occ. eigenvalues --   -3.22660  -3.22660  -3.22366  -3.22366  -3.20454
  Beta  occ. eigenvalues --   -3.20452  -3.20154  -3.20154  -3.20081  -3.20062
  Beta  occ. eigenvalues --   -0.55283  -0.41995  -0.33161  -0.27972  -0.22092
  Beta virt. eigenvalues --   -0.02067  -0.01466   0.00188   0.00904   0.05109
  Beta virt. eigenvalues --    0.08701   0.09836   0.10192   0.12319   0.12403
  Beta virt. eigenvalues --    0.17497   0.17793   0.21218   0.23415   0.23657

 Mulliken charges and spin densities:
               1          2
     1  Al   0.067988   0.262606
     2  Al  -0.067988   0.737394
     3  Al   0.067988   0.262606
     4  Al  -0.067988   0.737394
 Sum of Mulliken charges =   0.00000   2.00000

 Dipole moment (field-independent basis, Debye):
    X=              0.0000    Y=              0.0000    Z=              0.0000  Tot=              0.0000
 Quadrupole moment (field-independent basis, Debye-Ang):
   XX=            -58.5633   YY=            -54.5698   ZZ=            -47.8221
   XY=              0.0000   XZ=              0.0000   YZ=              0.0000

 78\CCSD=-967.8969099\CCSD(T)=-967.9315162\S2=2.078996\S2-1=2.037339\S2
 Normal termination of Gaussian 09 at Sun Feb 21 01:24:31 2021.
