 Gaussian 09, Revision D.01,

 ------------------------
 # hf/6-31G* test scf=xqc
 ------------------------

 -------
 Al4-a-d
 -------
 Symbolic Z-matrix:
 Charge = -1 Multiplicity = 2

 SCF Done:  E(UHF) =  -967.554608920     A.U. after   16 cycles
 Normal termination of Gaussian 09 at Tue Oct  4 06:52:55 2016.
 Gaussian 09:  ES64L-G09RevD.01 24-Apr-2013

 --------------------------------------------------------
 # CCSD(T,conver=5)/cc-pVTZ test geom=allcheck guess=read
 --------------------------------------------------------

 Structure from the checkpoint file:  "cc-Al4-a-d.chk"
 -------
 Al4-a-d
 -------
 Charge = -1 Multiplicity = 2

                         Standard orientation:
 ---------------------------------------------------------------------
 Center     Atomic      Atomic             Coordinates (Angstroms)
 Number     Number       Type             X           Y           Z
 ---------------------------------------------------------------------
      1         13           0        0.000000    0.000000    2.027624
      2         13           0        0.000000    1.575641    0.000000
      3         13           0        0.000000    0.000000   -2.027624
      4         13           0        0.000000   -1.575641    0.000000
 ---------------------------------------------------------------------

 SCF Done:  E(UHF) =  -967.642958238     A.U. after   15 cycles
 E2 =    -0.3196126232D+00 EUMP2 =    -0.96796257086152D+03
 CCSD(T)= -0.96800819143D+03

 The electronic state is 2-AG.
 Alpha  occ. eigenvalues --  -58.32128 -58.32128 -58.31953 -58.31953  -4.73335
 Alpha  occ. eigenvalues --   -4.73333  -4.73281  -4.73281  -3.04615  -3.04596
 Alpha  occ. eigenvalues --   -3.04417  -3.04399  -3.04308  -3.04306  -3.04254
 Alpha  occ. eigenvalues --   -3.04252  -3.04251  -3.04228  -3.04160  -3.04145
 Alpha  occ. eigenvalues --   -0.42110  -0.27095  -0.26311  -0.12141  -0.09259
 Alpha  occ. eigenvalues --   -0.06791  -0.06295
 Alpha virt. eigenvalues --    0.13624   0.16550   0.16788   0.17345   0.21776
 Alpha virt. eigenvalues --    0.22533   0.24762   0.25412   0.30067   0.31983
 Alpha virt. eigenvalues --    0.33623   0.33735   0.36660   0.37316   0.37932

  Beta  occ. eigenvalues --  -58.32152 -58.32152 -58.31750 -58.31750  -4.73356
  Beta  occ. eigenvalues --   -4.73356  -4.72960  -4.72959  -3.04410  -3.04405
  Beta  occ. eigenvalues --   -3.04338  -3.04337  -3.04331  -3.04326  -3.04100
  Beta  occ. eigenvalues --   -3.04099  -3.04086  -3.04083  -3.03764  -3.03756
  Beta  occ. eigenvalues --   -0.40038  -0.27692  -0.22106  -0.09771  -0.07935
  Beta  occ. eigenvalues --   -0.06027
  Beta virt. eigenvalues --    0.13774   0.14760   0.16306   0.19006   0.21298
  Beta virt. eigenvalues --    0.22121   0.24556   0.25408   0.25589   0.30577
  Beta virt. eigenvalues --    0.32432   0.35406   0.36710   0.37166   0.38245

 Mulliken charges and spin densities:
               1          2
     1  Al  -0.255661  -0.084008
     2  Al  -0.244339   0.584008
     3  Al  -0.255661  -0.084008
     4  Al  -0.244339   0.584008
 Sum of Mulliken charges =  -1.00000   1.00000

 Dipole moment (field-independent basis, Debye):
    X=              0.0000    Y=              0.0000    Z=              0.0000  Tot=              0.0000
 Quadrupole moment (field-independent basis, Debye-Ang):
   XX=            -66.0947   YY=            -71.6814   ZZ=            -78.7282
   XY=              0.0000   XZ=              0.0000   YZ=              0.0000

 .9687833\CCSD=-967.9701858\CCSD(T)=-968.0081914\S2=0.847353\S2-1=0.802
 Normal termination of Gaussian 09 at Tue Oct  4 06:53:25 2016.
