 Gaussian 09, Revision D.01,

 ------------------------
 # hf/6-31G* test scf=xqc
 ------------------------

 -------
 Al4-n-s
 -------
 Symbolic Z-matrix:
 Charge =  0 Multiplicity = 1

 SCF Done:  E(RHF) =  -967.487043775     A.U. after   15 cycles
 Normal termination of Gaussian 09 at Tue Oct  4 06:50:51 2016.
 Gaussian 09:  ES64L-G09RevD.01 24-Apr-2013

 --------------------------------------------------------
 # CCSD(T,conver=5)/cc-pVTZ test geom=allcheck guess=read
 --------------------------------------------------------

 Structure from the checkpoint file:  "cc-Al4-n-s.chk"
 -------
 Al4-n-s
 -------
 Charge =  0 Multiplicity = 1

                         Standard orientation:
 ---------------------------------------------------------------------
 Center     Atomic      Atomic             Coordinates (Angstroms)
 Number     Number       Type             X           Y           Z
 ---------------------------------------------------------------------
      1         13           0        1.228815    1.791083    0.000000
      2         13           0        1.228815   -0.703288    0.000000
      3         13           0       -1.228815   -1.791083    0.000000
      4         13           0       -1.228815    0.703288    0.000000
 ---------------------------------------------------------------------

 SCF Done:  E(RHF) =  -967.575450119     A.U. after   14 cycles
 E2 =    -0.3025301765D+00 EUMP2 =    -0.96787798029505D+03
 CCSD(T)= -0.96792579510D+03

 The electronic state is 1-AG.
 Alpha  occ. eigenvalues --  -58.49121 -58.49121 -58.48874 -58.48874  -4.90375
 Alpha  occ. eigenvalues --   -4.90372  -4.90003  -4.90003  -3.21430  -3.21405
 Alpha  occ. eigenvalues --   -3.21316  -3.21313  -3.21301  -3.21299  -3.20968
 Alpha  occ. eigenvalues --   -3.20964  -3.20895  -3.20895  -3.20845  -3.20843
 Alpha  occ. eigenvalues --   -0.57836  -0.44430  -0.37602  -0.26758  -0.22833
 Alpha  occ. eigenvalues --   -0.22213
 Alpha virt. eigenvalues --   -0.03049  -0.02160   0.01755   0.04428   0.05641
 Alpha virt. eigenvalues --    0.08998   0.10489   0.11018   0.12135   0.16401
 Alpha virt. eigenvalues --    0.17689   0.20636   0.21927   0.22428   0.24189

 Mulliken charges:
               1
     1  Al   0.032232
     2  Al  -0.032232
     3  Al   0.032232
     4  Al  -0.032232
 Sum of Mulliken charges =   0.00000

 Dipole moment (field-independent basis, Debye):
    X=              0.0000    Y=              0.0000    Z=              0.0000  Tot=              0.0000
 Quadrupole moment (field-independent basis, Debye-Ang):
   XX=            -51.9171   YY=            -47.0576   ZZ=            -58.6287
   XY=             -2.8467   XZ=              0.0000   YZ=              0.0000

 \MP4DQ=-967.8852084\MP4SDQ=-967.8899804\CCSD=-967.8903684\CCSD(T)=-967
 Normal termination of Gaussian 09 at Tue Oct  4 06:51:06 2016.
