 Gaussian 09, Revision D.01,

 ------------------------
 # hf/6-31G* test scf=xqc
 ------------------------

 -------
 Al4-c-q
 -------
 Symbolic Z-matrix:
 Charge =  1 Multiplicity = 4

 SCF Done:  E(UHF) =  -967.312765352     A.U. after   14 cycles
 Normal termination of Gaussian 09 at Tue Feb 23 07:25:24 2021.
 Gaussian 09:  EM64L-G09RevD.01 24-Apr-2013

 --------------------------------------------------------
 # CCSD(T,conver=5)/cc-pVTZ test geom=allcheck guess=read
 --------------------------------------------------------

 Structure from the checkpoint file:  "cc-Al4.chk"
 -------
 Al4-c-q
 -------
 Charge =  1 Multiplicity = 4

                         Standard orientation:
 ---------------------------------------------------------------------
 Center     Atomic      Atomic             Coordinates (Angstroms)
 Number     Number       Type             X           Y           Z
 ---------------------------------------------------------------------
      1         13           0        0.000000    0.000000    2.206232
      2         13           0        0.000000    1.615775    0.000000
      3         13           0        0.000000    0.000000   -2.206232
      4         13           0        0.000000   -1.615775    0.000000
 ---------------------------------------------------------------------

 SCF Done:  E(UHF) =  -967.408113739     A.U. after   15 cycles
 E2 =    -0.2309398065D+00 EUMP2 =    -0.96763905354597D+03
 CCSD(T)= -0.96769201227D+03

 The electronic state is 4-AU.
 Alpha  occ. eigenvalues --  -58.68339 -58.68339 -58.66570 -58.66570  -5.09221
 Alpha  occ. eigenvalues --   -5.09220  -5.07695  -5.07693  -3.40232  -3.40231
 Alpha  occ. eigenvalues --   -3.40110  -3.40110  -3.40049  -3.40049  -3.38792
 Alpha  occ. eigenvalues --   -3.38783  -3.38782  -3.38782  -3.38651  -3.38650
 Alpha  occ. eigenvalues --   -0.77253  -0.63603  -0.60813  -0.45007  -0.42660
 Alpha  occ. eigenvalues --   -0.40616  -0.39946
 Alpha virt. eigenvalues --   -0.18141  -0.15611  -0.14790  -0.13904  -0.06649
 Alpha virt. eigenvalues --   -0.06181  -0.05895  -0.01870   0.00462   0.01086
 Alpha virt. eigenvalues --    0.03428   0.05583   0.05696   0.07236   0.07555

  Beta  occ. eigenvalues --  -58.68238 -58.68238 -58.66217 -58.66217  -5.09147
  Beta  occ. eigenvalues --   -5.09147  -5.07227  -5.07226  -3.39902  -3.39902
  Beta  occ. eigenvalues --   -3.39819  -3.39819  -3.39637  -3.39637  -3.38027
  Beta  occ. eigenvalues --   -3.38027  -3.37876  -3.37876  -3.37860  -3.37854
  Beta  occ. eigenvalues --   -0.67457  -0.57060  -0.50149  -0.44148
  Beta virt. eigenvalues --   -0.17438  -0.16726  -0.15847  -0.15375  -0.11222
  Beta virt. eigenvalues --   -0.08131  -0.07014  -0.04004  -0.03948  -0.01575
  Beta virt. eigenvalues --   -0.00373   0.03321   0.04788   0.08156   0.09527

 Mulliken charges and spin densities:
               1          2
     1  Al   0.339539   0.466062
     2  Al   0.160461   1.033938
     3  Al   0.339539   0.466062
     4  Al   0.160461   1.033938
 Sum of Mulliken charges =   1.00000   3.00000

 Dipole moment (field-independent basis, Debye):
    X=              0.0000    Y=              0.0000    Z=              0.0000  Tot=              0.0000
 Quadrupole moment (field-independent basis, Debye-Ang):
   XX=            -46.9385   YY=            -39.6536   ZZ=            -26.4802
   XY=              0.0000   XZ=              0.0000   YZ=              0.0000

 1\1\GINC-COMCHEM2\SP\UCCSD(T)-FC\CC-pVTZ\Al4(1+,4)\TAM\23-Feb-2021\0\\
 # CCSD(T,conver=5)/cc-pVTZ test geom=allcheck guess=read\\Al4-c-q\\1,4
 \Al,0,0.,0.,2.206232\Al,0,0.,1.615775,0.\Al,0,0.,0.,-2.206232\Al,0,0.,
 -1.615775,0.\\Version=EM64L-G09RevD.01\State=4-AU\HF=-967.4081137\MP2=
 -967.6390535\MP3=-967.6685297\MP4D=-967.6806159\MP4DQ=-967.664158\PUHF
 =-967.4110401\PMP2-0=-967.6413282\PMP3-0=-967.6699951\MP4SDQ=-967.6675
 944\CCSD=-967.6670896\CCSD(T)=-967.6920123\S2=3.825983\S2-1=3.791549\S
 2A=3.751877\RMSD=1.948e-09\PG=D02H [C2'(Al1.Al1),C2"(Al1.Al1)]\\@

 Normal termination of Gaussian 09 at Tue Feb 23 07:25:53 2021.
