 Gaussian 09, Revision D.01,

 ------------------------
 # hf/6-31G* test scf=xqc
 ------------------------

 -------
 Al5-a-s
 -------
 Symbolic Z-matrix:
 Charge = -1 Multiplicity = 1

 SCF Done:  E(RHF) =  -1209.45864609     A.U. after   18 cycles
 Normal termination of Gaussian 09 at Tue Oct  4 06:09:31 2016.
 Gaussian 09:  ES64L-G09RevD.01 24-Apr-2013

 ----------------------------------------------------------------
 # CCSD(T,conver=5)/cc-pVTZ test geom=allcheck guess=read scf=xqc
 ----------------------------------------------------------------

 Structure from the checkpoint file:  "cc-Al5-a-s.chk"
 -------
 Al5-a-s
 -------
 Charge = -1 Multiplicity = 1

                         Standard orientation:
 ---------------------------------------------------------------------
 Center     Atomic      Atomic             Coordinates (Angstroms)
 Number     Number       Type             X           Y           Z
 ---------------------------------------------------------------------
      1         13           0        0.000000    2.574289    0.876272
      2         13           0        0.000000    0.000000    1.010193
      3         13           0        0.000000   -2.574289    0.876272
      4         13           0        0.000000   -1.271700   -1.381368
      5         13           0        0.000000    1.271700   -1.381368
 ---------------------------------------------------------------------

 SCF Done:  E(RHF) =  -1209.56632522     A.U. after   16 cycles
 E2 =    -0.4068925792D+00 EUMP2 =    -0.12099732177972D+04
 CCSD(T)= -0.12100323968D+04

 The electronic state is 1-A1.
 Alpha  occ. eigenvalues --  -58.34219 -58.34219 -58.33090 -58.33090 -58.31399
 Alpha  occ. eigenvalues --   -4.75538  -4.75527  -4.74253  -4.74253  -4.72990
 Alpha  occ. eigenvalues --   -3.06648  -3.06595  -3.06576  -3.06566  -3.06545
 Alpha  occ. eigenvalues --   -3.06501  -3.05311  -3.05311  -3.05285  -3.05284
 Alpha  occ. eigenvalues --   -3.05244  -3.05242  -3.04192  -3.04177  -3.04135
 Alpha  occ. eigenvalues --   -0.45462  -0.34972  -0.28007  -0.18178  -0.14657
 Alpha  occ. eigenvalues --   -0.08900  -0.08817  -0.07849
 Alpha virt. eigenvalues --    0.10575   0.12724   0.14344   0.15800   0.20923
 Alpha virt. eigenvalues --    0.21418   0.21982   0.22910   0.23163   0.25398
 Alpha virt. eigenvalues --    0.26203   0.29130   0.29382   0.33813   0.34321

 Mulliken charges:
               1
     1  Al  -0.183112
     2  Al  -0.207682
     3  Al  -0.183112
     4  Al  -0.213047
     5  Al  -0.213047
 Sum of Mulliken charges =  -1.00000

 Dipole moment (field-independent basis, Debye):
    X=              0.0000    Y=              0.0000    Z=             -1.9219  Tot=              1.9219
 Quadrupole moment (field-independent basis, Debye-Ang):
   XX=            -76.2208   YY=           -116.5315   ZZ=            -86.3583
   XY=              0.0000   XZ=              0.0000   YZ=              0.0000

 31876\CCSD=-1209.9834505\CCSD(T)=-1210.0323968\RMSD=5.422e-09\PG=C02V
 Normal termination of Gaussian 09 at Tue Oct  4 06:10:01 2016.
