 Gaussian 09, Revision D.01,

 ------------------------
 # hf/6-31G* test scf=xqc
 ------------------------

 -------
 Al5-c-s
 -------
 Symbolic Z-matrix:
 Charge =  1 Multiplicity = 1

 SCF Done:  E(RHF) =  -1209.19103693     A.U. after   19 cycles
 Normal termination of Gaussian 09 at Tue Oct  4 06:13:04 2016.
 Gaussian 09:  ES64L-G09RevD.01 24-Apr-2013

 --------------------------------------------------------
 # CCSD(T,conver=5)/cc-pVTZ test geom=allcheck guess=read
 --------------------------------------------------------

 Structure from the checkpoint file:  "cc-Al5-c-s.chk"
 -------
 Al5-c-s
 -------
 Charge =  1 Multiplicity = 1

                         Standard orientation:
 ---------------------------------------------------------------------
 Center     Atomic      Atomic             Coordinates (Angstroms)
 Number     Number       Type             X           Y           Z
 ---------------------------------------------------------------------
      1         13           0        0.417721    1.633360    1.353743
      2         13           0        0.417721   -1.049166    1.411067
      3         13           0       -1.670882   -1.168388    0.000000
      4         13           0        0.417721   -1.049166   -1.411067
      5         13           0        0.417721    1.633360   -1.353743
 ---------------------------------------------------------------------

 SCF Done:  E(RHF) =  -1209.30916338     A.U. after   18 cycles
 E2 =    -0.3557759314D+00 EUMP2 =    -0.12096649393094D+04
 CCSD(T)= -0.12097186028D+04

 The electronic state is 1-A'.
 Alpha  occ. eigenvalues --  -58.67094 -58.65964 -58.65964 -58.64731 -58.64731
 Alpha  occ. eigenvalues --   -5.08125  -5.06970  -5.06965  -5.05908  -5.05903
 Alpha  occ. eigenvalues --   -3.39030  -3.38979  -3.38945  -3.37876  -3.37864
 Alpha  occ. eigenvalues --   -3.37854  -3.37836  -3.37775  -3.37749  -3.36910
 Alpha  occ. eigenvalues --   -3.36903  -3.36862  -3.36851  -3.36820  -3.36803
 Alpha  occ. eigenvalues --   -0.75344  -0.62158  -0.59058  -0.48791  -0.43332
 Alpha  occ. eigenvalues --   -0.39674  -0.37710
 Alpha virt. eigenvalues --   -0.17689  -0.17370  -0.14935  -0.13599  -0.12733
 Alpha virt. eigenvalues --   -0.09358  -0.06975  -0.05154  -0.03756  -0.01654
 Alpha virt. eigenvalues --   -0.00651   0.01066   0.03926   0.04079   0.05450

 Mulliken charges:
               1
     1  Al   0.236508
     2  Al   0.145311
     3  Al   0.236361
     4  Al   0.145311
     5  Al   0.236508
 Sum of Mulliken charges =   1.00000

 Dipole moment (field-independent basis, Debye):
    X=             -0.2734    Y=              1.1026    Z=              0.0000  Tot=              1.1360
 Quadrupole moment (field-independent basis, Debye-Ang):
   XX=            -47.5624   YY=            -49.1133   ZZ=            -52.4860
   XY=              1.7344   XZ=              0.0000   YZ=              0.0000

 6779234\CCSD(T)=-1209.7186028\RMSD=6.483e-09\PG=CS [SG(Al1),X(Al4)]\\@
 Normal termination of Gaussian 09 at Tue Oct  4 06:13:45 2016.
