 Gaussian 09, Revision D.01,

 ------------------------
 # hf/6-31G* test scf=xqc
 ------------------------

 -------
 Al5-n-d
 -------
 Symbolic Z-matrix:
 Charge =  0 Multiplicity = 2

 SCF Done:  E(UHF) =  -1209.41729819     A.U. after   35 cycles
 Normal termination of Gaussian 09 at Tue Oct  4 06:07:43 2016.
 Gaussian 09:  ES64L-G09RevD.01 24-Apr-2013

 ----------------------------------------------------------------
 # CCSD(T,conver=5)/cc-pVTZ test geom=allcheck guess=read scf=xqc
 ----------------------------------------------------------------

 Structure from the checkpoint file:  "cc-Al5-n-d.chk"
 -------
 Al5-n-d
 -------
 Charge =  0 Multiplicity = 2

                         Standard orientation:
 ---------------------------------------------------------------------
 Center     Atomic      Atomic             Coordinates (Angstroms)
 Number     Number       Type             X           Y           Z
 ---------------------------------------------------------------------
      1         13           0        0.000000    2.515065    0.875439
      2         13           0        0.000000    0.000000    1.096699
      3         13           0        0.000000   -2.515065    0.875439
      4         13           0        0.000000   -1.240765   -1.423789
      5         13           0        0.000000    1.240765   -1.423789
 ---------------------------------------------------------------------

 SCF Done:  E(UHF) =  -1209.52739058     A.U. after   25 cycles
 E2 =    -0.3505026274D+00 EUMP2 =    -0.12098778932113D+04
 CCSD(T)= -0.12099527638D+04

 The electronic state is 2-B2.
 Alpha  occ. eigenvalues --  -58.49769 -58.49769 -58.48620 -58.48620 -58.47123
 Alpha  occ. eigenvalues --   -4.90963  -4.90963  -4.89927  -4.89915  -4.88697
 Alpha  occ. eigenvalues --   -3.22335  -3.22332  -3.21910  -3.21910  -3.21689
 Alpha  occ. eigenvalues --   -3.21689  -3.21045  -3.21024  -3.20842  -3.20829
 Alpha  occ. eigenvalues --   -3.20680  -3.20581  -3.20184  -3.19881  -3.19790
 Alpha  occ. eigenvalues --   -0.60544  -0.50718  -0.43532  -0.35579  -0.29248
 Alpha  occ. eigenvalues --   -0.26495  -0.23875  -0.22880
 Alpha virt. eigenvalues --   -0.02029  -0.01500   0.00406   0.02379   0.07576
 Alpha virt. eigenvalues --    0.07644   0.09010   0.10237   0.10804   0.12112
 Alpha virt. eigenvalues --    0.13717   0.15949   0.16722   0.20198   0.20909

  Beta  occ. eigenvalues --  -58.49552 -58.49552 -58.48694 -58.48694 -58.46746
  Beta  occ. eigenvalues --   -4.90613  -4.90613  -4.89968  -4.89952  -4.88119
  Beta  occ. eigenvalues --   -3.21826  -3.21826  -3.21698  -3.21698  -3.21331
  Beta  occ. eigenvalues --   -3.21223  -3.21217  -3.21213  -3.21102  -3.21086
  Beta  occ. eigenvalues --   -3.20927  -3.20911  -3.19346  -3.19294  -3.19027
  Beta  occ. eigenvalues --   -0.59874  -0.48259  -0.42654  -0.30339  -0.30033
  Beta  occ. eigenvalues --   -0.23547  -0.22992
  Beta virt. eigenvalues --   -0.00964  -0.00957  -0.00613   0.01769   0.02453
  Beta virt. eigenvalues --    0.09191   0.09896   0.09953   0.10054   0.11829
  Beta virt. eigenvalues --    0.13309   0.15646   0.16245   0.17203   0.20555

 Mulliken charges and spin densities:
               1          2
     1  Al   0.088737   0.417024
     2  Al  -0.136303   0.725077
     3  Al   0.088737   0.417024
     4  Al  -0.020586  -0.279562
     5  Al  -0.020586  -0.279562
 Sum of Mulliken charges =   0.00000   1.00000

 Dipole moment (field-independent basis, Debye):
    X=              0.0000    Y=              0.0000    Z=             -0.7410  Tot=              0.7410
 Quadrupole moment (field-independent basis, Debye-Ang):
   XX=            -68.4331   YY=            -62.9834   ZZ=            -68.8122
   XY=              0.0000   XZ=              0.0000   YZ=              0.0000

 CSD=-1209.9077005\CCSD(T)=-1209.9527638\S2=1.327706\S2-1=1.210192\S2A=
 Normal termination of Gaussian 09 at Tue Oct  4 06:08:59 2016.
