 Gaussian 09, Revision D.01,

 ------------------------
 # hf/6-31G* test scf=xqc
 ------------------------

 -------
 Al6-c-d
 -------
 Symbolic Z-matrix:
 Charge =  1 Multiplicity = 2

 SCF Done:  E(UHF) =  -1451.09074255     A.U. after   31 cycles
 Normal termination of Gaussian 09 at Tue Oct  4 07:00:59 2016.
 Gaussian 09:  ES64L-G09RevD.01 24-Apr-2013

 --------------------------------------------------------
 # CCSD(T,conver=5)/cc-pVTZ test geom=allcheck guess=read
 --------------------------------------------------------

 Structure from the checkpoint file:  "cc-Al6-c-d.chk"
 -------
 Al6-c-d
 -------
 Charge =  1 Multiplicity = 2

                         Standard orientation:
 ---------------------------------------------------------------------
 Center     Atomic      Atomic             Coordinates (Angstroms)
 Number     Number       Type             X           Y           Z
 ---------------------------------------------------------------------
      1         13           0        0.000000    1.266433    1.622807
      2         13           0        0.000000   -1.266433   -1.622807
      3         13           0       -1.936336   -0.345219    0.000000
      4         13           0        0.000000   -1.266433    1.622807
      5         13           0        0.000000    1.266433   -1.622807
      6         13           0        1.936336    0.345219    0.000000
 ---------------------------------------------------------------------

 SCF Done:  E(UHF) =  -1451.23658435     A.U. after   24 cycles
 E2 =    -0.4555798054D+00 EUMP2 =    -0.14516921641573D+04
 CCSD(T)= -0.14517487284D+04

 The electronic state is 2-AG.
 Alpha  occ. eigenvalues --  -58.65279 -58.65279 -58.65279 -58.65279 -58.65193
 Alpha  occ. eigenvalues --  -58.65193  -5.06386  -5.06385  -5.06375  -5.06373
 Alpha  occ. eigenvalues --   -5.06257  -5.06257  -3.37542  -3.37542  -3.37458
 Alpha  occ. eigenvalues --   -3.37457  -3.37338  -3.37330  -3.37295  -3.37281
 Alpha  occ. eigenvalues --   -3.37279  -3.37271  -3.37171  -3.37167  -3.37160
 Alpha  occ. eigenvalues --   -3.37159  -3.37114  -3.37111  -3.37090  -3.37090
 Alpha  occ. eigenvalues --   -0.79358  -0.65642  -0.62300  -0.55642  -0.45412
 Alpha  occ. eigenvalues --   -0.44504  -0.40324  -0.39133  -0.38642
 Alpha virt. eigenvalues --   -0.17640  -0.17177  -0.16089  -0.13975  -0.12754
 Alpha virt. eigenvalues --   -0.07173  -0.06584  -0.06290  -0.05347  -0.04230
 Alpha virt. eigenvalues --   -0.00858  -0.00498   0.02829   0.03170   0.03197

  Beta  occ. eigenvalues --  -58.65224 -58.65224 -58.65224 -58.65224 -58.65113
  Beta  occ. eigenvalues --  -58.65113  -5.06329  -5.06327  -5.06319  -5.06318
  Beta  occ. eigenvalues --   -5.06103  -5.06103  -3.37259  -3.37258  -3.37255
  Beta  occ. eigenvalues --   -3.37253  -3.37253  -3.37247  -3.37221  -3.37217
  Beta  occ. eigenvalues --   -3.37153  -3.37152  -3.37050  -3.37050  -3.37025
  Beta  occ. eigenvalues --   -3.37022  -3.36987  -3.36984  -3.36961  -3.36960
  Beta  occ. eigenvalues --   -0.77388  -0.63849  -0.60422  -0.52477  -0.44064
  Beta  occ. eigenvalues --   -0.44040  -0.39334  -0.38926
  Beta virt. eigenvalues --   -0.17452  -0.16719  -0.15274  -0.14660  -0.13178
  Beta virt. eigenvalues --   -0.10530  -0.08127  -0.05921  -0.04388  -0.03908
  Beta virt. eigenvalues --   -0.02879  -0.00741   0.00240   0.03388   0.03389

 Mulliken charges and spin densities:
               1          2
     1  Al   0.170416   0.176280
     2  Al   0.170416   0.176280
     3  Al   0.159167   0.147440
     4  Al   0.170416   0.176280
     5  Al   0.170416   0.176280
     6  Al   0.159167   0.147440
 Sum of Mulliken charges =   1.00000   1.00000

 Dipole moment (field-independent basis, Debye):
    X=              0.0000    Y=              0.0000    Z=              0.0000  Tot=              0.0000
 Quadrupole moment (field-independent basis, Debye-Ang):
   XX=            -63.1331   YY=            -59.5377   ZZ=            -60.5252
   XY=             -1.9630   XZ=              0.0000   YZ=              0.0000

 -1451.6900037\CCSD=-1451.693027\CCSD(T)=-1451.7487284\S2=1.007569\S2-1
 Normal termination of Gaussian 09 at Tue Oct  4 07:03:25 2016.
