 Gaussian 09, Revision D.01,

 ------------------------
 # hf/6-31G* test scf=xqc
 ------------------------

 -------
 Al6-a-d
 -------
 Symbolic Z-matrix:
 Charge = -1 Multiplicity = 2

 SCF Done:  E(UHF) =  -1451.36204107     A.U. after   16 cycles
 Normal termination of Gaussian 09 at Tue Oct  4 07:05:14 2016.
 Gaussian 09:  ES64L-G09RevD.01 24-Apr-2013

 --------------------------------------------------------
 # CCSD(T,conver=5)/cc-pVTZ test geom=allcheck guess=read
 --------------------------------------------------------

 Structure from the checkpoint file:  "cc-Al6-a-d.chk"
 -------
 Al6-a-d
 -------
 Charge = -1 Multiplicity = 2

                         Standard orientation:
 ---------------------------------------------------------------------
 Center     Atomic      Atomic             Coordinates (Angstroms)
 Number     Number       Type             X           Y           Z
 ---------------------------------------------------------------------
      1         13           0        0.000000    1.621153    1.045430
      2         13           0        0.000000   -1.621153   -1.045430
      3         13           0        1.403959   -0.810576    1.045430
      4         13           0        1.403959    0.810576   -1.045430
      5         13           0       -1.403959   -0.810576    1.045430
      6         13           0       -1.403959    0.810576   -1.045430
 ---------------------------------------------------------------------

 SCF Done:  E(UHF) =  -1451.50242413     A.U. after   15 cycles
 E2 =    -0.5499108162D+00 EUMP2 =    -0.14520523349457D+04
 CCSD(T)= -0.14520873780D+04

 The electronic state is 2-A1G.
 Alpha  occ. eigenvalues --  -58.33287 -58.33287 -58.33287 -58.33287 -58.33287
 Alpha  occ. eigenvalues --  -58.33287  -4.74542  -4.74531  -4.74531  -4.74526
 Alpha  occ. eigenvalues --   -4.74523  -4.74523  -3.05733  -3.05715  -3.05715
 Alpha  occ. eigenvalues --   -3.05695  -3.05695  -3.05695  -3.05610  -3.05568
 Alpha  occ. eigenvalues --   -3.05568  -3.05557  -3.05542  -3.05542  -3.05489
 Alpha  occ. eigenvalues --   -3.05489  -3.05484  -3.05471  -3.05471  -3.05455
 Alpha  occ. eigenvalues --   -0.51318  -0.32937  -0.32937  -0.31415  -0.13057
 Alpha  occ. eigenvalues --   -0.13057  -0.10559  -0.10076  -0.09575  -0.09575
 Alpha virt. eigenvalues --    0.12287   0.12287   0.12816   0.18768   0.19331
 Alpha virt. eigenvalues --    0.19331   0.20502   0.20815   0.20815   0.23970
 Alpha virt. eigenvalues --    0.23970   0.28957   0.29211   0.29211   0.29567

  Beta  occ. eigenvalues --  -58.33236 -58.33236 -58.33236 -58.33236 -58.33236
  Beta  occ. eigenvalues --  -58.33236  -4.74486  -4.74477  -4.74477  -4.74472
  Beta  occ. eigenvalues --   -4.74470  -4.74470  -3.05601  -3.05562  -3.05562
  Beta  occ. eigenvalues --   -3.05543  -3.05529  -3.05529  -3.05482  -3.05482
  Beta  occ. eigenvalues --   -3.05472  -3.05461  -3.05461  -3.05445  -3.05318
  Beta  occ. eigenvalues --   -3.05299  -3.05299  -3.05288  -3.05284  -3.05284
  Beta  occ. eigenvalues --   -0.49003  -0.31266  -0.31266  -0.26079  -0.12878
  Beta  occ. eigenvalues --   -0.12878  -0.10567  -0.08501  -0.08501
  Beta virt. eigenvalues --    0.11829   0.12436   0.12436   0.13586   0.18964
  Beta virt. eigenvalues --    0.20645   0.20645   0.21569   0.21897   0.21897
  Beta virt. eigenvalues --    0.24244   0.24244   0.29310   0.29450   0.29605

 Mulliken charges and spin densities:
               1          2
     1  Al  -0.166667   0.166667
     2  Al  -0.166667   0.166667
     3  Al  -0.166667   0.166667
     4  Al  -0.166667   0.166667
     5  Al  -0.166667   0.166667
     6  Al  -0.166667   0.166667
 Sum of Mulliken charges =  -1.00000   1.00000

 Dipole moment (field-independent basis, Debye):
    X=              0.0000    Y=              0.0000    Z=              0.0000  Tot=              0.0000
 Quadrupole moment (field-independent basis, Debye-Ang):
   XX=           -101.6563   YY=           -101.6563   ZZ=            -98.3681
   XY=              0.0000   XZ=              0.0000   YZ=              0.0000

 SDQ=-1452.02369\CCSD=-1452.0202095\CCSD(T)=-1452.087378\S2=0.788509\S2
 Normal termination of Gaussian 09 at Tue Oct  4 07:07:36 2016.
