 Gaussian 09, Revision D.01,

 ------------------------
 # hf/6-31G* test scf=xqc
 ------------------------

 -------
 Al6-n-s
 -------
 Symbolic Z-matrix:
 Charge =  0 Multiplicity = 1

 SCF Done:  E(RHF) =  -1451.29969284     A.U. after   22 cycles
 Normal termination of Gaussian 09 at Tue Oct  4 06:58:57 2016.
 Gaussian 09:  ES64L-G09RevD.01 24-Apr-2013

 --------------------------------------------------------
 # CCSD(T,conver=5)/cc-pVTZ test geom=allcheck guess=read
 --------------------------------------------------------

 Structure from the checkpoint file:  "cc-Al6-n-s-2.chk"
 -------
 Al6-n-s
 -------
 Charge =  0 Multiplicity = 1

                         Standard orientation:
 ---------------------------------------------------------------------
 Center     Atomic      Atomic             Coordinates (Angstroms)
 Number     Number       Type             X           Y           Z
 ---------------------------------------------------------------------
      1         13           0        0.922497    1.782148   -0.881027
      2         13           0       -0.541552   -0.004022    1.575416
      3         13           0       -1.590497    1.388658   -0.296104
      4         13           0        1.900082   -0.004601    0.787171
      5         13           0       -1.602344   -1.374026   -0.310318
      6         13           0        0.911815   -1.788156   -0.875137
 ---------------------------------------------------------------------

 SCF Done:  E(RHF) =  -1451.43789569     A.U. after   19 cycles
 E2 =    -0.5011722651D+00 EUMP2 =    -0.14519390679554D+04
 CCSD(T)= -0.14519854901D+04

 The electronic state is 1-A.
 Alpha  occ. eigenvalues --  -58.49367 -58.49361 -58.49323 -58.49298 -58.47132
 Alpha  occ. eigenvalues --  -58.46774  -4.90493  -4.90474  -4.90472  -4.90465
 Alpha  occ. eigenvalues --   -4.88494  -4.88197  -3.21536  -3.21512  -3.21465
 Alpha  occ. eigenvalues --   -3.21456  -3.21439  -3.21430  -3.21411  -3.21407
 Alpha  occ. eigenvalues --   -3.21402  -3.21397  -3.21336  -3.21327  -3.19549
 Alpha  occ. eigenvalues --   -3.19485  -3.19482  -3.19349  -3.19280  -3.19244
 Alpha  occ. eigenvalues --   -0.61910  -0.48166  -0.47107  -0.40576  -0.30612
 Alpha  occ. eigenvalues --   -0.27137  -0.24150  -0.23450  -0.22633
 Alpha virt. eigenvalues --   -0.02780  -0.00966  -0.00605   0.01039   0.01841
 Alpha virt. eigenvalues --    0.05318   0.06043   0.07913   0.09632   0.09659
 Alpha virt. eigenvalues --    0.11863   0.12810   0.15304   0.16392   0.17002

 Mulliken charges:
               1
     1  Al   0.036364
     2  Al  -0.072920
     3  Al   0.024422
     4  Al  -0.049938
     5  Al   0.025761
     6  Al   0.036312
 Sum of Mulliken charges =   0.00000

 Dipole moment (field-independent basis, Debye):
    X=             -0.1793    Y=             -0.0042    Z=             -0.2378  Tot=              0.2978
 Quadrupole moment (field-independent basis, Debye-Ang):
   XX=            -77.8096   YY=            -81.5188   ZZ=            -80.8676
   XY=             -0.0279   XZ=              0.2014   YZ=              0.0187

 451.9243538\CCSD(T)=-1451.9854901\RMSD=4.382e-09\PG=C01 [X(Al6)]\\@
 Normal termination of Gaussian 09 at Tue Oct  4 07:01:43 2016.
