 Gaussian 09, Revision D.01,

 ------------------------
 # hf/6-31G* test scf=xqc
 ------------------------

 ---------
 Al6-a-d-2
 ---------
 Symbolic Z-matrix:
 Charge = -1 Multiplicity = 2

 SCF Done:  E(UHF) =  -1451.36252446     A.U. after   50 cycles
 Normal termination of Gaussian 09 at Tue Oct  4 07:07:13 2016.
 Gaussian 09:  ES64L-G09RevD.01 24-Apr-2013

 --------------------------------------------------------
 # CCSD(T,conver=5)/cc-pVTZ test geom=allcheck guess=read
 --------------------------------------------------------

 Structure from the checkpoint file:  "cc-Al6-a-d-2.chk"
 ---------
 Al6-a-d-2
 ---------
 Charge = -1 Multiplicity = 2

                         Standard orientation:
 ---------------------------------------------------------------------
 Center     Atomic      Atomic             Coordinates (Angstroms)
 Number     Number       Type             X           Y           Z
 ---------------------------------------------------------------------
      1         13           0        0.753981   -1.284420    1.399947
      2         13           0       -1.508617    1.280462    0.000000
      3         13           0        0.753981    1.284927    1.400271
      4         13           0       -1.507308   -1.281477    0.000000
      5         13           0        0.753981    1.284927   -1.400271
      6         13           0        0.753981   -1.284420   -1.399947
 ---------------------------------------------------------------------

 SCF Done:  E(UHF) =  -1451.50050880     A.U. after   39 cycles
 E2 =    -0.5199613265D+00 EUMP2 =    -0.14520204701234D+04
 CCSD(T)= -0.14520717086D+04

 The electronic state is 2-A'.
 Alpha  occ. eigenvalues --  -58.33833 -58.33833 -58.33829 -58.33829 -58.32563
 Alpha  occ. eigenvalues --  -58.32556  -4.75060  -4.75054  -4.75048  -4.75044
 Alpha  occ. eigenvalues --   -4.73845  -4.73834  -3.06277  -3.06267  -3.06261
 Alpha  occ. eigenvalues --   -3.06252  -3.06144  -3.06140  -3.06064  -3.06062
 Alpha  occ. eigenvalues --   -3.06033  -3.06022  -3.06011  -3.06001  -3.05015
 Alpha  occ. eigenvalues --   -3.04993  -3.04886  -3.04852  -3.04842  -3.04818
 Alpha  occ. eigenvalues --   -0.48902  -0.34390  -0.32374  -0.30576  -0.14629
 Alpha  occ. eigenvalues --   -0.12799  -0.12730  -0.09936  -0.09249  -0.08221
 Alpha virt. eigenvalues --    0.12970   0.13634   0.15314   0.15330   0.15794
 Alpha virt. eigenvalues --    0.19395   0.20404   0.20517   0.21290   0.23974
 Alpha virt. eigenvalues --    0.24444   0.28432   0.29444   0.29538   0.29875

  Beta  occ. eigenvalues --  -58.33754 -58.33754 -58.33750 -58.33750 -58.32601
  Beta  occ. eigenvalues --  -58.32594  -4.74983  -4.74980  -4.74974  -4.74971
  Beta  occ. eigenvalues --   -4.73929  -4.73918  -3.06077  -3.06061  -3.06045
  Beta  occ. eigenvalues --   -3.06028  -3.05928  -3.05917  -3.05875  -3.05868
  Beta  occ. eigenvalues --   -3.05746  -3.05737  -3.05734  -3.05725  -3.05082
  Beta  occ. eigenvalues --   -3.05024  -3.04927  -3.04915  -3.04826  -3.04797
  Beta  occ. eigenvalues --   -0.46274  -0.32545  -0.29045  -0.27448  -0.13873
  Beta  occ. eigenvalues --   -0.12760  -0.10524  -0.09818  -0.07254
  Beta virt. eigenvalues --    0.12073   0.12146   0.14223   0.14752   0.16102
  Beta virt. eigenvalues --    0.19351   0.20187   0.20432   0.21007   0.22829
  Beta virt. eigenvalues --    0.24132   0.24584   0.28799   0.29294   0.29762

 Mulliken charges and spin densities:
               1          2
     1  Al  -0.154499   0.297167
     2  Al  -0.190920  -0.095248
     3  Al  -0.154541   0.297121
     4  Al  -0.190999  -0.093328
     5  Al  -0.154541   0.297121
     6  Al  -0.154499   0.297167
 Sum of Mulliken charges =  -1.00000   1.00000

 Dipole moment (field-independent basis, Debye):
    X=             -0.0886    Y=             -0.0007    Z=              0.0000  Tot=              0.0886
 Quadrupole moment (field-independent basis, Debye-Ang):
   XX=           -103.1713   YY=            -99.7914   ZZ=           -101.2706
   XY=              0.0011   XZ=              0.0000   YZ=              0.0000

 \CCSD(T)=-1452.0717086\S2=0.948808\S2-1=0.891449\S2A=0.78949\RMSD=8.52
 Normal termination of Gaussian 09 at Tue Oct  4 07:12:30 2016.
