 Gaussian 09, Revision D.01,

 ------------------------
 # hf/6-31G* test scf=xqc
 ------------------------

 -------
 Al6-n-s
 -------
 Symbolic Z-matrix:
 Charge =  0 Multiplicity = 1

 SCF Done:  E(RHF) =  -1451.29657716     A.U. after   12 cycles
 Normal termination of Gaussian 09 at Tue Oct  4 06:56:56 2016.
 Gaussian 09:  ES64L-G09RevD.01 24-Apr-2013

 --------------------------------------------------------
 # CCSD(T,conver=5)/cc-pVTZ test geom=allcheck guess=read
 --------------------------------------------------------

 Structure from the checkpoint file:  "cc-Al6-n-s.chk"
 -------
 Al6-n-s
 -------
 Charge =  0 Multiplicity = 1

                         Standard orientation:
 ---------------------------------------------------------------------
 Center     Atomic      Atomic             Coordinates (Angstroms)
 Number     Number       Type             X           Y           Z
 ---------------------------------------------------------------------
      1         13           0        0.000000    1.728593    0.963850
      2         13           0        0.000000   -1.728593   -0.963850
      3         13           0        1.497006   -0.864297    0.963850
      4         13           0        1.497006    0.864297   -0.963850
      5         13           0       -1.497006   -0.864297    0.963850
      6         13           0       -1.497006    0.864297   -0.963850
 ---------------------------------------------------------------------

 SCF Done:  E(RHF) =  -1451.43823634     A.U. after   11 cycles
 E2 =    -0.5151940470D+00 EUMP2 =    -0.14519534303821D+04
 CCSD(T)= -0.14519956963D+04

 The electronic state is 1-A1G.
 Alpha  occ. eigenvalues --  -58.48852 -58.48852 -58.48852 -58.48852 -58.48852
 Alpha  occ. eigenvalues --  -58.48852  -4.90065  -4.90057  -4.90057  -4.90048
 Alpha  occ. eigenvalues --   -4.90048  -4.90047  -3.21102  -3.21077  -3.21077
 Alpha  occ. eigenvalues --   -3.21032  -3.21032  -3.21009  -3.20999  -3.20991
 Alpha  occ. eigenvalues --   -3.20991  -3.20990  -3.20987  -3.20987  -3.20975
 Alpha  occ. eigenvalues --   -3.20955  -3.20955  -3.20942  -3.20942  -3.20932
 Alpha  occ. eigenvalues --   -0.64078  -0.48043  -0.48043  -0.39836  -0.28703
 Alpha  occ. eigenvalues --   -0.28703  -0.24621  -0.23628  -0.23628
 Alpha virt. eigenvalues --   -0.03158  -0.01374  -0.01374   0.00036   0.03027
 Alpha virt. eigenvalues --    0.07040   0.07040   0.08416   0.08416   0.08614
 Alpha virt. eigenvalues --    0.12138   0.12138   0.16462   0.16644   0.16644

 Mulliken charges:
               1
     1  Al   0.000000
     2  Al   0.000000
     3  Al   0.000000
     4  Al   0.000000
     5  Al   0.000000
     6  Al   0.000000
 Sum of Mulliken charges =   0.00000

 Dipole moment (field-independent basis, Debye):
    X=              0.0000    Y=              0.0000    Z=              0.0000  Tot=              0.0000
 Quadrupole moment (field-independent basis, Debye-Ang):
   XX=            -82.5369   YY=            -82.5369   ZZ=            -76.0020
   XY=              0.0000   XZ=              0.0000   YZ=              0.0000

 P4SDQ=-1451.9343161\CCSD=-1451.9331053\CCSD(T)=-1451.9956963\RMSD=9.44
 Normal termination of Gaussian 09 at Tue Oct  4 06:57:44 2016.
