 Gaussian 09, Revision D.01,

 ------------------------
 # hf/6-31G* test scf=xqc
 ------------------------

 ---------
 Al6-c-d-2
 ---------
 Symbolic Z-matrix:
 Charge =  1 Multiplicity = 2

 SCF Done:  E(UHF) =  -1451.10131205     A.U. after   65 cycles
 SCF Done:  E(UHF) =  -1451.11757513     a.u. after   64 cycles
 Normal termination of Gaussian 09 at Tue Oct  4 07:03:38 2016.
 Gaussian 09:  ES64L-G09RevD.01 24-Apr-2013

 --------------------------------------------------------
 # CCSD(T,conver=5)/cc-pVTZ test geom=allcheck guess=read
 --------------------------------------------------------

 Structure from the checkpoint file:  "cc-Al6-c-d-2.chk"
 ---------
 Al6-c-d-2
 ---------
 Charge =  1 Multiplicity = 2

                         Standard orientation:
 ---------------------------------------------------------------------
 Center     Atomic      Atomic             Coordinates (Angstroms)
 Number     Number       Type             X           Y           Z
 ---------------------------------------------------------------------
      1         13           0        0.724656   -1.395174    1.431433
      2         13           0       -1.437523    1.534304    0.000000
      3         13           0        0.724656    1.292033    1.464021
      4         13           0       -1.461101   -1.328022    0.000000
      5         13           0        0.724656    1.292033   -1.464021
      6         13           0        0.724656   -1.395174   -1.431433
 ---------------------------------------------------------------------

 SCF Done:  E(UHF) =  -1451.25839963     A.U. after   30 cycles
 E2 =    -0.3853899407D+00 EUMP2 =    -0.14516437895679D+04
 CCSD(T)= -0.14517431979D+04

 The electronic state is 2-A".
 Alpha  occ. eigenvalues --  -58.65336 -58.65336 -58.64763 -58.64763 -58.64555
 Alpha  occ. eigenvalues --  -58.63993  -5.06473  -5.06470  -5.05769  -5.05766
 Alpha  occ. eigenvalues --   -5.05625  -5.05288  -3.37697  -3.37684  -3.37538
 Alpha  occ. eigenvalues --   -3.37533  -3.37166  -3.37162  -3.37155  -3.37155
 Alpha  occ. eigenvalues --   -3.37054  -3.36844  -3.36751  -3.36746  -3.36528
 Alpha  occ. eigenvalues --   -3.36500  -3.36481  -3.36379  -3.36344  -3.36229
 Alpha  occ. eigenvalues --   -0.78224  -0.66349  -0.61452  -0.58776  -0.46970
 Alpha  occ. eigenvalues --   -0.43282  -0.42310  -0.39999  -0.39836
 Alpha virt. eigenvalues --   -0.17290  -0.15043  -0.13944  -0.12932  -0.12019
 Alpha virt. eigenvalues --   -0.08732  -0.07052  -0.06247  -0.04796  -0.04616
 Alpha virt. eigenvalues --    0.00031   0.00947   0.03002   0.03012   0.03666

  Beta  occ. eigenvalues --  -58.65151 -58.65151 -58.64977 -58.64977 -58.64633
  Beta  occ. eigenvalues --  -58.63650  -5.06200  -5.06198  -5.06171  -5.06166
  Beta  occ. eigenvalues --   -5.05871  -5.04800  -3.37398  -3.37389  -3.37385
  Beta  occ. eigenvalues --   -3.37366  -3.37151  -3.37142  -3.37083  -3.37034
  Beta  occ. eigenvalues --   -3.37025  -3.36859  -3.36849  -3.36749  -3.36748
  Beta  occ. eigenvalues --   -3.36614  -3.36394  -3.35713  -3.35612  -3.35515
  Beta  occ. eigenvalues --   -0.75616  -0.63709  -0.59373  -0.54566  -0.44422
  Beta  occ. eigenvalues --   -0.43375  -0.40848  -0.40321
  Beta virt. eigenvalues --   -0.16860  -0.16782  -0.14661  -0.13601  -0.11773
  Beta virt. eigenvalues --   -0.09500  -0.09452  -0.06462  -0.06177  -0.03673
  Beta virt. eigenvalues --   -0.02481   0.00443   0.01111   0.02617   0.03998

 Mulliken charges and spin densities:
               1          2
     1  Al   0.177858  -0.282257
     2  Al   0.143694   0.790131
     3  Al   0.174196   0.367753
     4  Al   0.152198   0.038876
     5  Al   0.174196   0.367753
     6  Al   0.177858  -0.282257
 Sum of Mulliken charges =   1.00000   1.00000

 Dipole moment (field-independent basis, Debye):
    X=              0.8050    Y=              0.3448    Z=              0.0000  Tot=              0.8757
 Quadrupole moment (field-independent basis, Debye-Ang):
   XX=            -62.1885   YY=            -58.9326   ZZ=            -62.7813
   XY=              0.3344   XZ=              0.0000   YZ=              0.0000

 98\CCSD(T)=-1451.7431979\S2=2.377735\S2-1=2.221625\S2A=4.252404\RMSD=8
 Normal termination of Gaussian 09 at Tue Oct  4 07:08:47 2016.
