 Gaussian 09, Revision D.01,

 ------------------------
 # hf/6-31G* test scf=xqc
 ------------------------

 -------
 Al7-n-d
 -------
 Symbolic Z-matrix:
 Charge =  0 Multiplicity = 2

 SCF Done:  E(UHF) =  -1693.25538516     A.U. after   44 cycles
 Normal termination of Gaussian 09 at Tue Oct  4 05:09:07 2016.
 Gaussian 09:  ES64L-G09RevD.01 24-Apr-2013

 ----------------------------------------------------------------
 # CCSD(T,conver=5)/cc-pVTZ test geom=allcheck guess=read scf=xqc
 ----------------------------------------------------------------

 Structure from the checkpoint file:  "cc-Al7-n-d.chk"
 -------
 Al7-n-d
 -------
 Charge =  0 Multiplicity = 2

                         Standard orientation:
 ---------------------------------------------------------------------
 Center     Atomic      Atomic             Coordinates (Angstroms)
 Number     Number       Type             X           Y           Z
 ---------------------------------------------------------------------
      1         13           0        0.344046   -1.402782    1.531616
      2         13           0        0.344046    1.166882   -1.348683
      3         13           0        2.214576   -0.216232    0.000000
      4         13           0        0.344046    1.166882    1.348683
      5         13           0       -1.905215    1.673440    0.000000
      6         13           0        0.344046   -1.402782   -1.531616
      7         13           0       -1.685544   -0.985407    0.000000
 ---------------------------------------------------------------------

 SCF Done:  E(UHF) =  -1693.41258001     A.U. after   33 cycles
 E2 =    -0.5581589853D+00 EUMP2 =    -0.16939707389911D+04
 CCSD(T)= -0.16940443082D+04

 The electronic state is 2-A'.
 Alpha  occ. eigenvalues --  -58.49044 -58.48305 -58.48305 -58.48226 -58.48072
 Alpha  occ. eigenvalues --  -58.48072 -58.47627  -4.90314  -4.89624  -4.89557
 Alpha  occ. eigenvalues --   -4.89555  -4.89372  -4.89366  -4.88850  -3.21714
 Alpha  occ. eigenvalues --   -3.21406  -3.21289  -3.21012  -3.20782  -3.20775
 Alpha  occ. eigenvalues --   -3.20746  -3.20692  -3.20691  -3.20644  -3.20636
 Alpha  occ. eigenvalues --   -3.20600  -3.20477  -3.20434  -3.20399  -3.20393
 Alpha  occ. eigenvalues --   -3.20358  -3.20355  -3.20061  -3.19912  -3.19798
 Alpha  occ. eigenvalues --   -0.66438  -0.53132  -0.48563  -0.47684  -0.36504
 Alpha  occ. eigenvalues --   -0.29931  -0.29630  -0.26580  -0.26211  -0.25306
 Alpha  occ. eigenvalues --   -0.24652
 Alpha virt. eigenvalues --   -0.00902  -0.00527   0.00712   0.01812   0.03484
 Alpha virt. eigenvalues --    0.03936   0.07217   0.07259   0.08680   0.09153
 Alpha virt. eigenvalues --    0.11634   0.11716   0.13531   0.13571   0.16221

  Beta  occ. eigenvalues --  -58.48624 -58.48378 -58.48378 -58.48077 -58.48076
  Beta  occ. eigenvalues --  -58.47859 -58.47790  -4.89689  -4.89686  -4.89658
  Beta  occ. eigenvalues --   -4.89435  -4.89429  -4.89231  -4.88916  -3.20971
  Beta  occ. eigenvalues --   -3.20966  -3.20828  -3.20776  -3.20637  -3.20625
  Beta  occ. eigenvalues --   -3.20616  -3.20599  -3.20548  -3.20539  -3.20538
  Beta  occ. eigenvalues --   -3.20507  -3.20474  -3.20416  -3.20326  -3.20203
  Beta  occ. eigenvalues --   -3.20180  -3.20166  -3.20128  -3.20013  -3.19784
  Beta  occ. eigenvalues --   -0.65329  -0.48749  -0.48261  -0.48009  -0.29858
  Beta  occ. eigenvalues --   -0.29154  -0.28972  -0.25571  -0.25368  -0.25174
  Beta virt. eigenvalues --   -0.01569  -0.01013   0.00680   0.01527   0.02259
  Beta virt. eigenvalues --    0.02415   0.03885   0.06920   0.07261   0.09572
  Beta virt. eigenvalues --    0.11111   0.11959   0.12417   0.14967   0.15217

 Mulliken charges and spin densities:
               1          2
     1  Al  -0.004550  -0.148048
     2  Al  -0.024540   0.010349
     3  Al   0.017770   0.870830
     4  Al  -0.024540   0.010349
     5  Al   0.055645   0.891401
     6  Al  -0.004550  -0.148048
     7  Al  -0.015235  -0.486834
 Sum of Mulliken charges =   0.00000   1.00000

 Dipole moment (field-independent basis, Debye):
    X=              0.2817    Y=              0.0658    Z=              0.0000  Tot=              0.2893
 Quadrupole moment (field-independent basis, Debye-Ang):
   XX=            -95.3650   YY=            -89.3189   ZZ=            -92.0352
   XY=              0.5110   XZ=              0.0000   YZ=              0.0000

 1\1\GINC-R2I1N3\SP\UCCSD(T)-FC\CC-pVTZ\Al7(2)\VSC31064\04-Oct-2016\0\\
 # CCSD(T,conver=5)/cc-pVTZ test geom=allcheck guess=read scf=xqc\\Al7-
 n-d\\0,2\Al,0,-1.10466802,0.93071288,1.53161568\Al,0,0.4094373,-1.1454
 9989,-1.34868304\Al,0,-1.91685822,-1.13014367,0.\Al,0,0.4094373,-1.145
 49989,1.34868304\Al,0,2.52524907,-0.22946709,0.\Al,0,-1.10466802,0.930
 71288,-1.53161568\Al,0,0.78110771,1.78936746,0.\\Version=ES64L-G09RevD
 .01\State=2-A'\HF=-1693.41258\MP2=-1693.970739\MP3=-1693.9536887\MP4D=
 -1693.992592\MP4DQ=-1693.9516956\PUHF=-1693.4407609\PMP2-0=-1693.99745

 Normal termination of Gaussian 09 at Tue Oct  4 05:20:02 2016.
