 Gaussian 09, Revision D.01,

 ------------------------
 # hf/6-31G* test scf=xqc
 ------------------------

 -------
 Al7-c-s
 -------
 Symbolic Z-matrix:
 Charge =  1 Multiplicity = 1

 SCF Done:  E(RHF) =  -1693.04570715     A.U. after   15 cycles
 Normal termination of Gaussian 09 at Tue Oct  4 05:17:44 2016.
 Gaussian 09:  ES64L-G09RevD.01 24-Apr-2013

 --------------------------------------------------------
 # CCSD(T,conver=5)/cc-pVTZ test geom=allcheck guess=read
 --------------------------------------------------------

 Structure from the checkpoint file:  "cc-Al7-c-s.chk"
 -------
 Al7-c-s
 -------
 Charge =  1 Multiplicity = 1

                         Standard orientation:
 ---------------------------------------------------------------------
 Center     Atomic      Atomic             Coordinates (Angstroms)
 Number     Number       Type             X           Y           Z
 ---------------------------------------------------------------------
      1         13           0        0.000000    1.988534    0.554477
      2         13           0        0.000000   -1.594992   -1.302589
      3         13           0       -1.381304    0.797496   -1.302589
      4         13           0        1.381304    0.797496   -1.302589
      5         13           0        1.722121   -0.994267    0.554477
      6         13           0       -1.722121   -0.994267    0.554477
      7         13           0        0.000000    0.000000    2.244336
 ---------------------------------------------------------------------

 SCF Done:  E(RHF) =  -1693.20938086     A.U. after   15 cycles
 E2 =    -0.5940923530D+00 EUMP2 =    -0.16938034732173D+04
 CCSD(T)= -0.16938357336D+04

 The electronic state is 1-A1.
 Alpha  occ. eigenvalues --  -58.63696 -58.63696 -58.63696 -58.63642 -58.63642
 Alpha  occ. eigenvalues --  -58.63642 -58.63629  -5.04895  -5.04887  -5.04887
 Alpha  occ. eigenvalues --   -5.04821  -5.04819  -5.04819  -5.04788  -3.35988
 Alpha  occ. eigenvalues --   -3.35958  -3.35958  -3.35904  -3.35903  -3.35903
 Alpha  occ. eigenvalues --   -3.35886  -3.35873  -3.35872  -3.35872  -3.35854
 Alpha  occ. eigenvalues --   -3.35854  -3.35845  -3.35807  -3.35807  -3.35804
 Alpha  occ. eigenvalues --   -3.35791  -3.35791  -3.35763  -3.35740  -3.35740
 Alpha  occ. eigenvalues --   -0.79880  -0.63929  -0.63305  -0.63305  -0.44535
 Alpha  occ. eigenvalues --   -0.44535  -0.43003  -0.40169  -0.40169  -0.38538
 Alpha virt. eigenvalues --   -0.15074  -0.14367  -0.14367  -0.13653  -0.12287
 Alpha virt. eigenvalues --   -0.12287  -0.11622  -0.05778  -0.05778  -0.04185
 Alpha virt. eigenvalues --   -0.00441  -0.00441   0.00620   0.02626   0.02626

 Mulliken charges:
               1
     1  Al   0.145013
     2  Al   0.133977
     3  Al   0.133977
     4  Al   0.133977
     5  Al   0.145013
     6  Al   0.145013
     7  Al   0.163029
 Sum of Mulliken charges =   1.00000

 Dipole moment (field-independent basis, Debye):
    X=              0.0000    Y=              0.0000    Z=             -0.1375  Tot=              0.1375
 Quadrupole moment (field-independent basis, Debye-Ang):
   XX=            -71.6148   YY=            -71.6148   ZZ=            -66.0106
   XY=              0.0000   XZ=              0.0000   YZ=              0.0000

 DQ=-1693.7618122\MP4SDQ=-1693.7681627\CCSD=-1693.7632488\CCSD(T)=-1693
 Normal termination of Gaussian 09 at Tue Oct  4 05:21:16 2016.
