 Gaussian 09, Revision D.01,

 ------------------------
 # hf/6-31G* test scf=xqc
 ------------------------

 -------
 Al8-c-d
 -------
 Symbolic Z-matrix:
 Charge =  1 Multiplicity = 2

 SCF Done:  E(UHF) =  -1934.93457404     A.U. after   65 cycles
 SCF Done:  E(UHF) =  -1934.94372445     a.u. after   23 cycles
 Normal termination of Gaussian 09 at Mon Oct  3 11:46:02 2016.
 Gaussian 09:  ES64L-G09RevD.01 24-Apr-2013

 --------------------------------------------------------
 # CCSD(T,conver=5)/cc-pVTZ test geom=allcheck guess=read
 --------------------------------------------------------

 Structure from the checkpoint file:  "cc-Al8-c-d.chk"
 -------
 Al8-c-d
 -------
 Charge =  1 Multiplicity = 2

                         Standard orientation:
 ---------------------------------------------------------------------
 Center     Atomic      Atomic             Coordinates (Angstroms)
 Number     Number       Type             X           Y           Z
 ---------------------------------------------------------------------
      1         13           0        2.018292   -0.554413    0.000000
      2         13           0       -1.747899    0.252838    0.000000
      3         13           0        0.233905   -1.479244    1.683380
      4         13           0        0.233905   -1.479244   -1.683380
      5         13           0        0.233905    1.086641   -1.478847
      6         13           0        0.233905    1.086641    1.478847
      7         13           0       -1.533250   -2.350691    0.000000
      8         13           0        0.327239    3.437472    0.000000
 ---------------------------------------------------------------------

 SCF Done:  E(UHF) =  -1935.12612051     A.U. after   38 cycles
 E2 =    -0.6086621938D+00 EUMP2 =    -0.19357347827059D+04
 CCSD(T)= -0.19358262922D+04

 The electronic state is 2-A".
 Alpha  occ. eigenvalues --  -58.64956 -58.63339 -58.62617 -58.62617 -58.62496
 Alpha  occ. eigenvalues --  -58.62354 -58.62244 -58.62244  -5.05833  -5.04567
 Alpha  occ. eigenvalues --   -5.03979  -5.03977  -5.03719  -5.03595  -5.03510
 Alpha  occ. eigenvalues --   -5.03508  -3.36979  -3.36689  -3.36593  -3.35772
 Alpha  occ. eigenvalues --   -3.35403  -3.35373  -3.35212  -3.35211  -3.35043
 Alpha  occ. eigenvalues --   -3.35038  -3.34953  -3.34940  -3.34923  -3.34887
 Alpha  occ. eigenvalues --   -3.34885  -3.34824  -3.34708  -3.34687  -3.34621
 Alpha  occ. eigenvalues --   -3.34603  -3.34548  -3.34458  -3.34421  -3.34415
 Alpha  occ. eigenvalues --   -0.80496  -0.67898  -0.64946  -0.62314  -0.56128
 Alpha  occ. eigenvalues --   -0.48573  -0.43621  -0.41684  -0.40174  -0.39764
 Alpha  occ. eigenvalues --   -0.38487  -0.38402
 Alpha virt. eigenvalues --   -0.17250  -0.13840  -0.12722  -0.12602  -0.11449
 Alpha virt. eigenvalues --   -0.11037  -0.09490  -0.06843  -0.05161  -0.04839
 Alpha virt. eigenvalues --   -0.03530  -0.01330  -0.00568   0.00719   0.01409

  Beta  occ. eigenvalues --  -58.64905 -58.63233 -58.62795 -58.62347 -58.62347
  Beta  occ. eigenvalues --  -58.62338 -58.62338 -58.62120  -5.05833  -5.04322
  Beta  occ. eigenvalues --   -5.04095  -5.03731  -5.03727  -5.03501  -5.03500
  Beta  occ. eigenvalues --   -5.03315  -3.36712  -3.36635  -3.36213  -3.35549
  Beta  occ. eigenvalues --   -3.35476  -3.35325  -3.35278  -3.35056  -3.35025
  Beta  occ. eigenvalues --   -3.34990  -3.34975  -3.34806  -3.34798  -3.34682
  Beta  occ. eigenvalues --   -3.34681  -3.34603  -3.34601  -3.34535  -3.34504
  Beta  occ. eigenvalues --   -3.34504  -3.34425  -3.34425  -3.34327  -3.34278
  Beta  occ. eigenvalues --   -0.79496  -0.66327  -0.62721  -0.62293  -0.52493
  Beta  occ. eigenvalues --   -0.45166  -0.44350  -0.41606  -0.39856  -0.39694
  Beta  occ. eigenvalues --   -0.38199
  Beta virt. eigenvalues --   -0.16048  -0.14835  -0.13681  -0.13303  -0.11144
  Beta virt. eigenvalues --   -0.10756  -0.10076  -0.09108  -0.05420  -0.04501
  Beta virt. eigenvalues --   -0.03154  -0.02938  -0.00550  -0.00413   0.01066

 Mulliken charges and spin densities:
               1          2
     1  Al   0.115717  -0.542592
     2  Al   0.083332   0.448177
     3  Al   0.143302   0.501166
     4  Al   0.143302   0.501166
     5  Al   0.011807  -0.170286
     6  Al   0.011807  -0.170286
     7  Al   0.187044   0.164213
     8  Al   0.303688   0.268444
 Sum of Mulliken charges =   1.00000   1.00000

 Dipole moment (field-independent basis, Debye):
    X=             -0.1140    Y=              1.1015    Z=              0.0000  Tot=              1.1074
 Quadrupole moment (field-independent basis, Debye-Ang):
   XX=            -86.5810   YY=            -68.9526   ZZ=            -87.1511
   XY=              5.4916   XZ=              0.0000   YZ=              0.0000

 36561\CCSD=-1935.7464624\CCSD(T)=-1935.8262922\S2=1.889976\S2-1=1.7028
 Normal termination of Gaussian 09 at Mon Oct  3 12:06:18 2016.
