 Gaussian 09, Revision D.01,

 ------------------------
 # hf/6-31G* test scf=xqc
 ------------------------

 -------
 Al8-n-s
 -------
 Symbolic Z-matrix:
 Charge =  0 Multiplicity = 1

 SCF Done:  E(RHF) =  -1935.13476398     A.U. after   20 cycles
 Normal termination of Gaussian 09 at Mon Oct  3 11:45:31 2016.
 Gaussian 09:  ES64L-G09RevD.01 24-Apr-2013

 --------------------------------------------------------
 # CCSD(T,conver=5)/cc-pVTZ test geom=allcheck guess=read
 --------------------------------------------------------

 Structure from the checkpoint file:  "cc-Al8-n-s.chk"
 -------
 Al8-n-s
 -------
 Charge =  0 Multiplicity = 1

                         Standard orientation:
 ---------------------------------------------------------------------
 Center     Atomic      Atomic             Coordinates (Angstroms)
 Number     Number       Type             X           Y           Z
 ---------------------------------------------------------------------
      1         13           0        1.890023   -0.416897    0.000000
      2         13           0       -1.756309    0.169955    0.000000
      3         13           0        0.069019   -1.333894    1.667737
      4         13           0        0.069019   -1.333894   -1.667737
      5         13           0        0.069019    1.223399   -1.555433
      6         13           0        0.069019    1.223399    1.555433
      7         13           0       -1.401620   -2.602786    0.000000
      8         13           0        0.991830    3.070718    0.000000
 ---------------------------------------------------------------------

 SCF Done:  E(RHF) =  -1935.31265322     A.U. after   17 cycles
 E2 =    -0.7048325271D+00 EUMP2 =    -0.19360174857515D+04
 CCSD(T)= -0.19360621725D+04

 The electronic state is 1-A'.
 Alpha  occ. eigenvalues --  -58.49033 -58.48657 -58.48037 -58.47920 -58.47920
 Alpha  occ. eigenvalues --  -58.47758 -58.47758 -58.47199  -4.90155  -4.89808
 Alpha  occ. eigenvalues --   -4.89244  -4.89242  -4.89217  -4.89133  -4.89131
 Alpha  occ. eigenvalues --   -4.88473  -3.21145  -3.21119  -3.21022  -3.20916
 Alpha  occ. eigenvalues --   -3.20833  -3.20783  -3.20417  -3.20410  -3.20348
 Alpha  occ. eigenvalues --   -3.20344  -3.20328  -3.20325  -3.20301  -3.20292
 Alpha  occ. eigenvalues --   -3.20265  -3.20248  -3.20247  -3.20219  -3.20218
 Alpha  occ. eigenvalues --   -3.20186  -3.20179  -3.19618  -3.19540  -3.19526
 Alpha  occ. eigenvalues --   -0.65810  -0.53619  -0.50034  -0.46413  -0.41466
 Alpha  occ. eigenvalues --   -0.34250  -0.28819  -0.25397  -0.25295  -0.24680
 Alpha  occ. eigenvalues --   -0.23959  -0.23508
 Alpha virt. eigenvalues --   -0.03058  -0.02068  -0.00097   0.00632   0.01020
 Alpha virt. eigenvalues --    0.03432   0.05710   0.06603   0.07864   0.07955
 Alpha virt. eigenvalues --    0.09941   0.10225   0.10335   0.12238   0.13243

 Mulliken charges:
               1
     1  Al  -0.034275
     2  Al  -0.052060
     3  Al   0.019864
     4  Al   0.019864
     5  Al  -0.013533
     6  Al  -0.013533
     7  Al   0.023950
     8  Al   0.049723
 Sum of Mulliken charges =   0.00000

 Dipole moment (field-independent basis, Debye):
    X=             -0.1524    Y=              0.3798    Z=              0.0000  Tot=              0.4093
 Quadrupole moment (field-independent basis, Debye-Ang):
   XX=           -106.8930   YY=           -105.3458   ZZ=           -100.6136
   XY=              2.2281   XZ=              0.0000   YZ=              0.0000

 848051\CCSD=-1935.9752356\CCSD(T)=-1936.0621725\RMSD=6.930e-09\PG=CS [
 Normal termination of Gaussian 09 at Mon Oct  3 11:54:10 2016.
