 Gaussian 09, Revision D.01,

 ------------------------
 # hf/6-31G* test scf=xqc
 ------------------------

 ------------
 Al8-n-s-test
 ------------
 Symbolic Z-matrix:
 Charge =  0 Multiplicity = 1

 SCF Done:  E(RHF) =  -1935.13292931     A.U. after   18 cycles
 Normal termination of Gaussian 09 at Mon Oct  3 11:42:23 2016.
 Gaussian 09:  ES64L-G09RevD.01 24-Apr-2013

 --------------------------------------------------------
 # CCSD(T,conver=5)/cc-pVTZ test geom=allcheck guess=read
 --------------------------------------------------------

 Structure from the checkpoint file:  "cc-Al8-n-s-test.chk"
 ------------
 Al8-n-s-test
 ------------
 Charge =  0 Multiplicity = 1

                         Standard orientation:
 ---------------------------------------------------------------------
 Center     Atomic      Atomic             Coordinates (Angstroms)
 Number     Number       Type             X           Y           Z
 ---------------------------------------------------------------------
      1         13           0        1.829800   -0.287909    0.000000
      2         13           0       -1.819985    0.273043    0.000000
      3         13           0        0.004886   -1.282064    1.612799
      4         13           0        0.004886   -1.282064   -1.612799
      5         13           0        0.004886    1.272211   -1.607686
      6         13           0        0.004886    1.272211    1.607686
      7         13           0       -1.354047   -2.746051    0.000000
      8         13           0        1.324685    2.780623    0.000000
 ---------------------------------------------------------------------

 SCF Done:  E(RHF) =  -1935.31067888     A.U. after   17 cycles
 E2 =    -0.7090424638D+00 EUMP2 =    -0.19360197213406D+04
 CCSD(T)= -0.19360628710D+04

 The electronic state is 1-A'.
 Alpha  occ. eigenvalues --  -58.48847 -58.48819 -58.47931 -58.47931 -58.47912
 Alpha  occ. eigenvalues --  -58.47912 -58.47734 -58.47667  -4.89979  -4.89953
 Alpha  occ. eigenvalues --   -4.89283  -4.89282  -4.89265  -4.89264  -4.88942
 Alpha  occ. eigenvalues --   -4.88881  -3.21017  -3.21001  -3.20970  -3.20949
 Alpha  occ. eigenvalues --   -3.20890  -3.20873  -3.20465  -3.20459  -3.20430
 Alpha  occ. eigenvalues --   -3.20423  -3.20393  -3.20389  -3.20380  -3.20378
 Alpha  occ. eigenvalues --   -3.20360  -3.20360  -3.20322  -3.20321  -3.20033
 Alpha  occ. eigenvalues --   -3.19979  -3.19948  -3.19941  -3.19896  -3.19886
 Alpha  occ. eigenvalues --   -0.65927  -0.53758  -0.50148  -0.46091  -0.41741
 Alpha  occ. eigenvalues --   -0.34320  -0.28772  -0.25322  -0.24965  -0.24878
 Alpha  occ. eigenvalues --   -0.24001  -0.23707
 Alpha virt. eigenvalues --   -0.03010  -0.02519  -0.00465   0.00552   0.01044
 Alpha virt. eigenvalues --    0.03437   0.06611   0.06791   0.07506   0.08398
 Alpha virt. eigenvalues --    0.09135   0.10144   0.10581   0.12252   0.13110

 Mulliken charges:
               1
     1  Al  -0.045407
     2  Al  -0.046884
     3  Al   0.009974
     4  Al   0.009974
     5  Al   0.007492
     6  Al   0.007492
     7  Al   0.027822
     8  Al   0.029537
 Sum of Mulliken charges =   0.00000

 Dipole moment (field-independent basis, Debye):
    X=             -0.0091    Y=              0.0304    Z=              0.0000  Tot=              0.0317
 Quadrupole moment (field-independent basis, Debye-Ang):
   XX=           -107.5905   YY=           -105.5359   ZZ=            -99.9535
   XY=              2.0559   XZ=              0.0000   YZ=              0.0000

 Q=-1935.9859096\CCSD=-1935.9750463\CCSD(T)=-1936.062871\RMSD=3.827e-09
 Normal termination of Gaussian 09 at Mon Oct  3 11:50:42 2016.
