 Gaussian 09, Revision D.01,

 ------------------------
 # hf/6-31G* test scf=xqc
 ------------------------

 -------
 Al9-c-s
 -------
 Symbolic Z-matrix:
 Charge =  1 Multiplicity = 1

 SCF Done:  E(RHF) =  -2176.83712276     A.U. after   20 cycles
 Normal termination of Gaussian 09 at Mon Oct  3 10:33:01 2016.
 Gaussian 09:  ES64L-G09RevD.01 24-Apr-2013

 --------------------------------------------------------
 # CCSD(T,conver=5)/cc-pVTZ test geom=allcheck guess=read
 --------------------------------------------------------

 Structure from the checkpoint file:  "cc-Al9-c-s-test.chk"
 -------
 Al9-c-s
 -------
 Charge =  1 Multiplicity = 1

                         Standard orientation:
 ---------------------------------------------------------------------
 Center     Atomic      Atomic             Coordinates (Angstroms)
 Number     Number       Type             X           Y           Z
 ---------------------------------------------------------------------
      1         13           0        0.078794    2.857382    0.000000
      2         13           0       -0.085156    0.204478    1.578906
      3         13           0        1.827876   -0.649732    0.000000
      4         13           0       -0.085156   -2.339570    1.256313
      5         13           0       -0.085156   -2.339570   -1.256313
      6         13           0       -1.981064    1.345863    0.000000
      7         13           0       -0.085156    0.204478   -1.578906
      8         13           0        2.628841    1.913854    0.000000
      9         13           0       -2.213821   -1.197182    0.000000
 ---------------------------------------------------------------------

 SCF Done:  E(RHF) =  -2177.03958166     A.U. after   18 cycles
 E2 =    -0.7652024975D+00 EUMP2 =    -0.21778047841542D+04
 CCSD(T)= -0.21778550950D+04

 The electronic state is 1-A'.
 Alpha  occ. eigenvalues --  -58.62860 -58.62850 -58.62757 -58.62586 -58.62212
 Alpha  occ. eigenvalues --  -58.62212 -58.61470 -58.61470 -58.61158  -5.04104
 Alpha  occ. eigenvalues --   -5.04002  -5.03924  -5.03581  -5.03414  -5.03401
 Alpha  occ. eigenvalues --   -5.02720  -5.02719  -5.02348  -3.35211  -3.35209
 Alpha  occ. eigenvalues --   -3.35144  -3.35131  -3.35129  -3.35103  -3.34970
 Alpha  occ. eigenvalues --   -3.34966  -3.34840  -3.34618  -3.34558  -3.34515
 Alpha  occ. eigenvalues --   -3.34499  -3.34472  -3.34466  -3.34465  -3.34424
 Alpha  occ. eigenvalues --   -3.34375  -3.33925  -3.33918  -3.33838  -3.33837
 Alpha  occ. eigenvalues --   -3.33811  -3.33808  -3.33460  -3.33413  -3.33351
 Alpha  occ. eigenvalues --   -0.80315  -0.68827  -0.65753  -0.61099  -0.55082
 Alpha  occ. eigenvalues --   -0.53431  -0.46294  -0.43424  -0.38975  -0.38700
 Alpha  occ. eigenvalues --   -0.38405  -0.37357  -0.35300
 Alpha virt. eigenvalues --   -0.15865  -0.15711  -0.14141  -0.12588  -0.11958
 Alpha virt. eigenvalues --   -0.10434  -0.10018  -0.07280  -0.06830  -0.04704
 Alpha virt. eigenvalues --   -0.04229  -0.02224  -0.02147  -0.01576   0.00736

 Mulliken charges:
               1
     1  Al   0.159908
     2  Al  -0.000778
     3  Al   0.073034
     4  Al   0.141734
     5  Al   0.141734
     6  Al   0.152098
     7  Al  -0.000778
     8  Al   0.242249
     9  Al   0.090800
 Sum of Mulliken charges =   1.00000

 Dipole moment (field-independent basis, Debye):
    X=              0.3247    Y=              0.6176    Z=              0.0000  Tot=              0.6977
 Quadrupole moment (field-independent basis, Debye-Ang):
   XX=            -91.9934   YY=            -82.7402   ZZ=           -101.1934
   XY=             -0.2061   XZ=              0.0000   YZ=              0.0000

 CCSD=-2177.7606082\CCSD(T)=-2177.855095\RMSD=9.867e-09\PG=CS [SG(Al5),
 Normal termination of Gaussian 09 at Mon Oct  3 10:47:55 2016.
