 Gaussian 09, Revision D.01,

 ------------------------
 # hf/6-31G* test scf=xqc
 ------------------------

 -------
 Al9-n-d
 -------
 Symbolic Z-matrix:
 Charge =  0 Multiplicity = 2

 SCF Done:  E(UHF) =  -2177.04579312     A.U. after   63 cycles
 Normal termination of Gaussian 09 at Mon Oct  3 06:35:16 2016.
 Gaussian 09:  ES64L-G09RevD.01 24-Apr-2013

 ----------------------------------------------------------------
 # CCSD(T,conver=5)/cc-pVTZ test geom=allcheck guess=read scf=xqc
 ----------------------------------------------------------------

 Structure from the checkpoint file:  "cc-Al9-n-d.chk"
 -------
 Al9-n-d
 -------
 Charge =  0 Multiplicity = 2

                         Standard orientation:
 ---------------------------------------------------------------------
 Center     Atomic      Atomic             Coordinates (Angstroms)
 Number     Number       Type             X           Y           Z
 ---------------------------------------------------------------------
      1         13           0       -0.070058    2.876778    0.000000
      2         13           0        0.011112    0.325459    1.372805
      3         13           0        2.066424   -0.901461    0.000000
      4         13           0        0.011112   -2.211056    1.275712
      5         13           0        0.011112   -2.211056   -1.275712
      6         13           0       -2.196029    1.335741    0.000000
      7         13           0        0.011112    0.325459   -1.372805
      8         13           0        2.341471    1.699738    0.000000
      9         13           0       -2.186257   -1.239601    0.000000
 ---------------------------------------------------------------------

 SCF Done:  E(UHF) =  -2177.24503597     A.U. after   50 cycles
 E2 =    -0.7821036786D+00 EUMP2 =    -0.21780271396438D+04
 CCSD(T)= -0.21780872504D+04

 The electronic state is 2-A'.
 Alpha  occ. eigenvalues --  -58.49167 -58.49054 -58.49054 -58.49035 -58.48411
 Alpha  occ. eigenvalues --  -58.48120 -58.48120 -58.47880 -58.47810  -4.90443
 Alpha  occ. eigenvalues --   -4.90364  -4.90353  -4.90257  -4.89793  -4.89459
 Alpha  occ. eigenvalues --   -4.89453  -4.89031  -4.89017  -3.21749  -3.21598
 Alpha  occ. eigenvalues --   -3.21569  -3.21535  -3.21431  -3.21429  -3.21412
 Alpha  occ. eigenvalues --   -3.21369  -3.21348  -3.21323  -3.21311  -3.21103
 Alpha  occ. eigenvalues --   -3.21092  -3.20786  -3.20742  -3.20732  -3.20701
 Alpha  occ. eigenvalues --   -3.20669  -3.20641  -3.20588  -3.20582  -3.20233
 Alpha  occ. eigenvalues --   -3.20068  -3.20042  -3.20033  -3.19931  -3.19838
 Alpha  occ. eigenvalues --   -0.68661  -0.57206  -0.54498  -0.47219  -0.41447
 Alpha  occ. eigenvalues --   -0.40412  -0.38967  -0.30302  -0.26703  -0.25655
 Alpha  occ. eigenvalues --   -0.25462  -0.25185  -0.24443  -0.22638
 Alpha virt. eigenvalues --   -0.03964  -0.01153  -0.00713  -0.00068   0.00990
 Alpha virt. eigenvalues --    0.02064   0.05505   0.05605   0.07596   0.08068
 Alpha virt. eigenvalues --    0.08105   0.08462   0.11140   0.11928   0.12067

  Beta  occ. eigenvalues --  -58.49290 -58.49035 -58.49035 -58.48629 -58.48147
  Beta  occ. eigenvalues --  -58.48064 -58.48064 -58.47932 -58.47817  -4.90469
  Beta  occ. eigenvalues --   -4.90302  -4.90291  -4.89761  -4.89375  -4.89370
  Beta  occ. eigenvalues --   -4.89276  -4.89087  -4.89028  -3.21670  -3.21529
  Beta  occ. eigenvalues --   -3.21513  -3.21492  -3.21478  -3.21426  -3.21353
  Beta  occ. eigenvalues --   -3.21329  -3.21309  -3.21073  -3.20866  -3.20743
  Beta  occ. eigenvalues --   -3.20689  -3.20680  -3.20661  -3.20583  -3.20577
  Beta  occ. eigenvalues --   -3.20560  -3.20430  -3.20424  -3.20242  -3.20220
  Beta  occ. eigenvalues --   -3.20158  -3.20137  -3.20070  -3.20035  -3.19979
  Beta  occ. eigenvalues --   -0.67854  -0.56858  -0.52788  -0.47119  -0.41196
  Beta  occ. eigenvalues --   -0.40111  -0.33930  -0.30220  -0.26142  -0.25348
  Beta  occ. eigenvalues --   -0.24813  -0.24730  -0.23171
  Beta virt. eigenvalues --   -0.03348  -0.01476  -0.01031   0.00013   0.00471
  Beta virt. eigenvalues --    0.02844   0.03077   0.05420   0.06621   0.08153
  Beta virt. eigenvalues --    0.08317   0.08818   0.09910   0.11247   0.12456

 Mulliken charges and spin densities:
               1          2
     1  Al   0.041034  -0.242421
     2  Al  -0.053055   0.089691
     3  Al   0.014426   0.446074
     4  Al   0.016928  -0.000127
     5  Al   0.016928  -0.000127
     6  Al   0.021289   0.770657
     7  Al  -0.053055   0.089691
     8  Al   0.008771  -0.101906
     9  Al  -0.013266  -0.051533
 Sum of Mulliken charges =   0.00000   1.00000

 Dipole moment (field-independent basis, Debye):
    X=             -0.4833    Y=             -0.5771    Z=              0.0000  Tot=              0.7527
 Quadrupole moment (field-independent basis, Debye-Ang):
   XX=           -125.2491   YY=           -116.5061   ZZ=           -116.6600
   XY=             -3.7186   XZ=              0.0000   YZ=              0.0000

 -0=-2177.9746377\MP4SDQ=-2177.9983479\CCSD=-2177.988048\CCSD(T)=-2178.
 Normal termination of Gaussian 09 at Mon Oct  3 07:15:41 2016.
