 Gaussian 09, Revision D.01,

 ------------------------
 # hf/6-31G* test scf=xqc
 ------------------------

 -------
 Al9-c-s
 -------
 Symbolic Z-matrix:
 Charge =  1 Multiplicity = 1

 SCF Done:  E(RHF) =  -2176.83802541     A.U. after   21 cycles
 Normal termination of Gaussian 09 at Mon Oct  3 10:34:51 2016.
 Gaussian 09:  ES64L-G09RevD.01 24-Apr-2013

 --------------------------------------------------------
 # CCSD(T,conver=5)/cc-pVTZ test geom=allcheck guess=read
 --------------------------------------------------------

 Structure from the checkpoint file:  "cc-Al9-c-s.chk"
 -------
 Al9-c-s
 -------
 Charge =  1 Multiplicity = 1

                         Standard orientation:
 ---------------------------------------------------------------------
 Center     Atomic      Atomic             Coordinates (Angstroms)
 Number     Number       Type             X           Y           Z
 ---------------------------------------------------------------------
      1         13           0        1.512325    2.916697    0.000000
      2         13           0       -1.935131    0.174582    0.000000
      3         13           0       -0.142352   -0.822744    1.741997
      4         13           0       -1.636018   -2.540967    0.000000
      5         13           0        0.975492   -2.534817    0.000000
      6         13           0       -0.142352    1.775073   -1.630204
      7         13           0        1.652740    0.079845    0.000000
      8         13           0       -0.142352    1.775073    1.630204
      9         13           0       -0.142352   -0.822744   -1.741997
 ---------------------------------------------------------------------

 SCF Done:  E(RHF) =  -2177.03955488     A.U. after   19 cycles
 E2 =    -0.7766237361D+00 EUMP2 =    -0.21778161786163D+04
 CCSD(T)= -0.21778635983D+04

 The electronic state is 1-A'.
 Alpha  occ. eigenvalues --  -58.62971 -58.62910 -58.62910 -58.62443 -58.62392
 Alpha  occ. eigenvalues --  -58.61914 -58.61914 -58.61683 -58.61504  -5.04134
 Alpha  occ. eigenvalues --   -5.04022  -5.04021  -5.03546  -5.03496  -5.03264
 Alpha  occ. eigenvalues --   -5.03263  -5.02788  -5.02785  -3.35170  -3.35124
 Alpha  occ. eigenvalues --   -3.35118  -3.35105  -3.35079  -3.35073  -3.35066
 Alpha  occ. eigenvalues --   -3.35003  -3.35001  -3.34688  -3.34603  -3.34567
 Alpha  occ. eigenvalues --   -3.34559  -3.34447  -3.34446  -3.34445  -3.34444
 Alpha  occ. eigenvalues --   -3.34378  -3.34378  -3.34333  -3.34332  -3.33998
 Alpha  occ. eigenvalues --   -3.33931  -3.33890  -3.33782  -3.33715  -3.33702
 Alpha  occ. eigenvalues --   -0.80986  -0.69996  -0.64485  -0.63239  -0.57115
 Alpha  occ. eigenvalues --   -0.49346  -0.47492  -0.43311  -0.40062  -0.39300
 Alpha  occ. eigenvalues --   -0.38538  -0.36824  -0.35354
 Alpha virt. eigenvalues --   -0.16123  -0.15308  -0.15065  -0.13798  -0.12529
 Alpha virt. eigenvalues --   -0.12291  -0.07277  -0.06444  -0.05308  -0.05057
 Alpha virt. eigenvalues --   -0.03742  -0.02823  -0.02488  -0.01110   0.00292

 Mulliken charges:
               1
     1  Al   0.206684
     2  Al   0.077637
     3  Al   0.053935
     4  Al   0.127017
     5  Al   0.149835
     6  Al   0.158864
     7  Al   0.013228
     8  Al   0.158864
     9  Al   0.053935
 Sum of Mulliken charges =   1.00000

 Dipole moment (field-independent basis, Debye):
    X=              0.4102    Y=              0.2494    Z=              0.0000  Tot=              0.4801
 Quadrupole moment (field-independent basis, Debye-Ang):
   XX=            -97.9274   YY=            -84.8492   ZZ=            -93.6688
   XY=              1.4443   XZ=              0.0000   YZ=              0.0000

 \MP4DQ=-2177.7667168\MP4SDQ=-2177.7797587\CCSD=-2177.7665873\CCSD(T)=-
 Normal termination of Gaussian 09 at Mon Oct  3 10:49:02 2016.
