 Gaussian 03, Revision E.01,

 ----------------------------------------------------------------------
 # b3lyp/LANL2DZ opt=(calcall,noeigentest,maxcycle=500) scfcyc=500 scf=
 xqc
 ----------------------------------------------------------------------

 ------
 si10-n
 ------
 Symbolic Z-matrix:
 Charge = -2 Multiplicity = 1

 SCF Done:  E(RB+HF-LYP) =  -38.6653195003     A.U. after   12 cycles
 SCF Done:  E(RB+HF-LYP) =  -38.6797541683     A.U. after   11 cycles
 SCF Done:  E(RB+HF-LYP) =  -38.6937082457     A.U. after   12 cycles
 SCF Done:  E(RB+HF-LYP) =  -38.7009143821     A.U. after   11 cycles
 SCF Done:  E(RB+HF-LYP) =  -38.7027267486     A.U. after   11 cycles
 SCF Done:  E(RB+HF-LYP) =  -38.7027276310     A.U. after    7 cycles
 Optimization completed.
    -- Stationary point found.
 Normal termination of Gaussian 03 at Fri Dec  2 12:04:13 2011.

 ----------------------------------------------------------------------
 # b3lyp/6-31G(d) opt=(readfc,noeigentest,maxcycle=500) freq scfcyc=500
  optcyc=500 geom=allcheck guess=read scf=xqc
 ----------------------------------------------------------------------

 si10-n
 ------
 Redundant internal coordinates taken from checkpoint file:
 S9L-ne-d-01.chk
 Charge = -2 Multiplicity = 1

 SCF Done:  E(RB+HF-LYP) =  -2894.92611025     A.U. after   21 cycles
 SCF Done:  E(RB+HF-LYP) =  -2894.93572798     A.U. after   12 cycles
 SCF Done:  E(RB+HF-LYP) =  -2894.94549565     A.U. after   13 cycles
 SCF Done:  E(RB+HF-LYP) =  -2894.95003021     A.U. after   13 cycles
 SCF Done:  E(RB+HF-LYP) =  -2894.95082509     A.U. after   12 cycles
 SCF Done:  E(RB+HF-LYP) =  -2894.95085322     A.U. after    8 cycles
 Optimization completed.
 Normal termination of Gaussian 03 at Fri Dec  2 12:25:08 2011.

 ------------------------------------------------------------------
 #N Geom=AllCheck Guess=Read SCRF=Check GenChk RB3LYP/6-31G(d) Freq
 ------------------------------------------------------------------

 si10-n
 ------
 Redundant internal coordinates taken from checkpoint file:
 S9L-ne-d-01.chk
 Charge = -2 Multiplicity = 1

 SCF Done:  E(RB+HF-LYP) =  -2894.95085322     A.U. after    1 cycles
 Normal termination of Gaussian 03 at Fri Dec  2 12:31:21 2011.

 ----------------------------------------------------------------------
 # b3lyp/6-311G(d) opt=(readfc,noeigentest,maxcycle=500) freq scfcyc=50
 0 optcyc=500 geom=allcheck guess=read scf=xqc
 ----------------------------------------------------------------------

 si10-n
 ------
 Redundant internal coordinates taken from checkpoint file:
 S9L-ne-d-01.chk
 Charge = -2 Multiplicity = 1

 SCF Done:  E(RB+HF-LYP) =  -2895.16523453     A.U. after    9 cycles
 SCF Done:  E(RB+HF-LYP) =  -2895.16525710     A.U. after    8 cycles
 Normal termination of Gaussian 03 at Fri Dec  2 12:40:06 2011.

 -------------------------------------------------------------------
 #N Geom=AllCheck Guess=Read SCRF=Check GenChk RB3LYP/6-311G(d) Freq
 -------------------------------------------------------------------

 si10-n
 ------
 Redundant internal coordinates taken from checkpoint file:
 S9L-ne-d-01.chk
 Charge = -2 Multiplicity = 1

 SCF Done:  E(RB+HF-LYP) =  -2895.16525710     A.U. after    1 cycles
 Normal termination of Gaussian 03 at Fri Dec  2 12:48:12 2011.
 Gaussian 03:  AM64L-G03RevE.01 11-Sep-2007

 ----------------------------------------------------------------------
 # b3lyp/6-311+G(d) opt=(readfc,noeigentest,maxcycle=500) freq scfcyc=5
 00 optcyc=500 scf=xqc geom=allcheck guess=read
 ----------------------------------------------------------------------

 si10-n
 ------
 Redundant internal coordinates taken from checkpoint file:
 S9L-ne-d-01.chk
 Charge = -2 Multiplicity = 1

 SCF Done:  E(RB+HF-LYP) =  -2895.17416943     A.U. after   11 cycles
 SCF Done:  E(RB+HF-LYP) =  -2895.17418473     A.U. after    9 cycles
    -- Stationary point found.
 Normal termination of Gaussian 03 at Fri Dec  2 12:58:07 2011.

                         Standard orientation:
 ---------------------------------------------------------------------
 Center     Atomic     Atomic              Coordinates (Angstroms)
 Number     Number      Type              X           Y           Z
 ---------------------------------------------------------------------
    1         14             0        0.000000    0.000000    2.586443
    2         14             0        0.000000    1.919444    0.970956
    3         14             0        1.919444    0.000000    0.970956
    4         14             0       -1.919444    0.000000    0.970956
    5         14             0        0.000000   -1.919444    0.970956
    6         14             0        1.357252    1.357252   -0.970956
    7         14             0       -1.357252    1.357252   -0.970956
    8         14             0        0.000000    0.000000   -2.586443
    9         14             0        1.357252   -1.357252   -0.970956
   10         14             0       -1.357252   -1.357252   -0.970956
 ---------------------------------------------------------------------

 SCF Done:  E(RB+HF-LYP) =  -2895.17418473     A.U. after    1 cycles

 The electronic state is 1-A1.
 Alpha  occ. eigenvalues --  -65.85682 -65.85682 -65.84731 -65.84731 -65.84731
 Alpha  occ. eigenvalues --  -65.84731 -65.84731 -65.84731 -65.84731 -65.84731
 Alpha  occ. eigenvalues --   -5.02540  -5.02539  -5.01753  -5.01753  -5.01753
 Alpha  occ. eigenvalues --   -5.01747  -5.01746  -5.01746  -5.01745  -5.01745
 Alpha  occ. eigenvalues --   -3.38407  -3.38407  -3.38407  -3.38407  -3.38064
 Alpha  occ. eigenvalues --   -3.38064  -3.37624  -3.37624  -3.37623  -3.37623
 Alpha  occ. eigenvalues --   -3.37621  -3.37610  -3.37610  -3.37600  -3.37500
 Alpha  occ. eigenvalues --   -3.37495  -3.37495  -3.37490  -3.37488  -3.37488
 Alpha  occ. eigenvalues --   -3.37487  -3.37487  -3.37426  -3.37416  -3.37416
 Alpha  occ. eigenvalues --   -3.37397  -3.37397  -3.37385  -3.37385  -3.37380
 Alpha  occ. eigenvalues --   -0.39956  -0.30902  -0.29730  -0.29730  -0.19764
 Alpha  occ. eigenvalues --   -0.15335  -0.15335  -0.15194  -0.15194  -0.05146
 Alpha  occ. eigenvalues --   -0.04516  -0.01356  -0.01356   0.01169   0.01169
 Alpha  occ. eigenvalues --    0.01316   0.01316   0.03361   0.04408   0.04408
 Alpha  occ. eigenvalues --    0.05205
 Alpha virt. eigenvalues --    0.16189   0.16189   0.18773   0.19262   0.19262
 Alpha virt. eigenvalues --    0.19313   0.19313   0.19454   0.19613   0.19876
 Alpha virt. eigenvalues --    0.19876   0.20373   0.21795   0.21795   0.22287

 Mulliken atomic charges:
              1
     1  Si  -0.132546
     2  Si  -0.216863
     3  Si  -0.216863
     4  Si  -0.216863
     5  Si  -0.216863
     6  Si  -0.216863
     7  Si  -0.216863
     8  Si  -0.132546
     9  Si  -0.216863
    10  Si  -0.216863
 Sum of Mulliken charges=  -2.00000

 Dipole moment (field-independent basis, Debye):
    X=     0.0000    Y=     0.0000    Z=     0.0000  Tot=     0.0000
 Quadrupole moment (field-independent basis, Debye-Ang):
   XX=  -182.6084   YY=  -182.6084   ZZ=  -194.4347
   XY=     0.0000   XZ=     0.0000   YZ=     0.0000

  Exact polarizability: 403.349   0.000 403.349   0.000   0.000 457.270
 Approx polarizability:1120.692   0.0001120.692   0.000   0.0001206.142

                     1                      2                      3
                    E1                     E1                     E2
 Frequencies --    84.7016                84.7016               190.0461
 Red. masses --    27.9769                27.9769                27.9769
 Frc consts  --     0.1183                 0.1183                 0.5953
 IR Inten    --     1.9003                 1.9003                 0.0000

                     4                      5                      6
                    E2                     E3                     E3
 Frequencies --   190.0461               212.4782               212.4782
 Red. masses --    27.9769                27.9769                27.9769
 Frc consts  --     0.5953                 0.7442                 0.7442
 IR Inten    --     0.0000                 0.0000                 0.0000

                     7                      8                      9
                    B2                     E3                     E3
 Frequencies --   219.8279               259.0901               259.0901
 Red. masses --    27.9769                27.9769                27.9769
 Frc consts  --     0.7966                 1.1065                 1.1065
 IR Inten    --    18.0281                 0.0000                 0.0000

                    10                     11                     12
                    B1                     E2                     E2
 Frequencies --   261.3319               261.5182               261.5182
 Red. masses --    27.9769                27.9769                27.9769
 Frc consts  --     1.1257                 1.1273                 1.1273
 IR Inten    --     0.0000                 0.0000                 0.0000

                    13                     14                     15
                    E1                     E1                     A1
 Frequencies --   261.9877               261.9877               263.4051
 Red. masses --    27.9769                27.9769                27.9769
 Frc consts  --     1.1314                 1.1314                 1.1437
 IR Inten    --     0.0804                 0.0804                 0.0000

                    16                     17                     18
                    E3                     E3                     E2
 Frequencies --   303.1624               303.1624               328.6549
 Red. masses --    27.9769                27.9769                27.9769
 Frc consts  --     1.5150                 1.5150                 1.7805
 IR Inten    --     0.0000                 0.0000                 0.0000

                    19                     20                     21
                    E2                     A1                     B2
 Frequencies --   328.6549               337.1453               363.4522
 Red. masses --    27.9769                27.9769                27.9769
 Frc consts  --     1.7805                 1.8736                 2.1774
 IR Inten    --     0.0000                 0.0000                 6.2546

                    22                     23                     24
                    E1                     E1                     A1
 Frequencies --   375.3918               375.3918               405.3622
 Red. masses --    27.9769                27.9769                27.9769
 Frc consts  --     2.3228                 2.3228                 2.7085
 IR Inten    --     0.0067                 0.0067                 0.0000

 - Thermochemistry -
 -------------------
 Temperature   298.150 Kelvin.  Pressure   1.00000 Atm.
 Atom  1 has atomic number 14 and mass  27.97693

 Molecular mass:   279.76928 amu.
 Principal axes and moments of inertia in atomic units:
                           1         2         3
     EIGENVALUES --  2944.683393562.546103562.54610
           X            0.00000  -0.17723   0.98417
           Y            0.00000   0.98417   0.17723
           Z            1.00000   0.00000   0.00000
 This molecule is a prolate symmetric top.
 Rotational symmetry number  8.
 Warning -- assumption of classical behavior for rotation
           may cause significant error
 Rotational temperatures (Kelvin)      0.02941     0.02431     0.02431
 Rotational constants (GHZ):           0.61288     0.50659     0.50659
 Zero-point vibrational energy      38307.9 (Joules/Mol)
                                    9.15582 (Kcal/Mol)
 Warning -- explicit consideration of  24 degrees of freedom as
           vibrations may cause significant error
 Vibrational temperatures:    121.87   121.87   273.43   273.43   305.71
          (Kelvin)            305.71   316.28   372.77   372.77   376.00
                              376.27   376.27   376.94   376.94   378.98
                              436.18   436.18   472.86   472.86   485.08
                              522.93   540.10   540.10   583.23

 Zero-point correction=                           0.014591 (Hartree/Particle)
 Thermal correction to Energy=                    0.028783
 Thermal correction to Enthalpy=                  0.029728
 Thermal correction to Gibbs Free Energy=        -0.023778
 Sum of electronic and zero-point Energies=          -2895.159594
 Sum of electronic and thermal Energies=             -2895.145401
 Sum of electronic and thermal Enthalpies=           -2895.144457
 Sum of electronic and thermal Free Energies=        -2895.197963

                     E (Thermal)             CV                S
                      KCal/Mol        Cal/Mol-Kelvin    Cal/Mol-Kelvin
 Total                   18.062             47.217            112.613
 Electronic               0.000              0.000              0.000
 Translational            0.889              2.981             42.785
 Rotational               0.889              2.981             27.859
 Vibrational             16.284             41.255             41.969
 Vibration  1             0.601              1.960              3.779
 Vibration  2             0.601              1.960              3.779
 Vibration  3             0.633              1.854              2.227
 Vibration  4             0.633              1.854              2.227
 Vibration  5             0.644              1.822              2.022
 Vibration  6             0.644              1.822              2.022
 Vibration  7             0.647              1.811              1.961
 Vibration  8             0.668              1.747              1.668
 Vibration  9             0.668              1.747              1.668
 Vibration 10             0.669              1.744              1.653
 Vibration 11             0.669              1.743              1.652
 Vibration 12             0.669              1.743              1.652
 Vibration 13             0.669              1.742              1.648
 Vibration 14             0.669              1.742              1.648
 Vibration 15             0.670              1.740              1.639
 Vibration 16             0.695              1.668              1.399
 Vibration 17             0.695              1.668              1.399
 Vibration 18             0.712              1.618              1.267
 Vibration 19             0.712              1.618              1.267
 Vibration 20             0.718              1.601              1.226
 Vibration 21             0.737              1.548              1.107
 Vibration 22             0.746              1.523              1.058
 Vibration 23             0.746              1.523              1.058
 Vibration 24             0.770              1.459              0.943

 Optimization completed.
    -- Stationary point found.
 Normal termination of Gaussian 03 at Fri Dec  2 13:08:32 2011.
