 Gaussian 16, Revision C.01,
 Gaussian 16:  ES64L-G16RevC.01  3-Jul-2019

 --------------------------------------------------
 #p b3lyp opt=(noeigentest) freq 6-311+g(d) scf=xqc
 --------------------------------------------------

 ------------------
 Si11-anion-doublet
 ------------------
 Symbolic Z-matrix:
 Charge = -1 Multiplicity = 2

 SCF Done:  E(UB3LYP) =  -3184.68056078     A.U. after   22 cycles
 SCF Done:  E(UB3LYP) =  -3184.68078623     A.U. after   16 cycles
 SCF Done:  E(UB3LYP) =  -3184.68092036     A.U. after   16 cycles
 SCF Done:  E(UB3LYP) =  -3184.68093337     A.U. after   15 cycles
 SCF Done:  E(UB3LYP) =  -3184.68094655     A.U. after   16 cycles
 SCF Done:  E(UB3LYP) =  -3184.68094808     A.U. after   14 cycles
 SCF Done:  E(UB3LYP) =  -3184.68094966     A.U. after   14 cycles
 Optimization completed.
    -- Stationary point found.
 Normal termination of Gaussian 16 at Tue May  6 04:24:40 2025.

 ----------------------------------------------------------------------
 #P Geom=AllCheck Guess=TCheck SCRF=Check GenChk UB3LYP/6-311+G(d) Freq
 ----------------------------------------------------------------------

 Structure from the checkpoint file:  "/scratch/gridchem/job_39134909/Gau-2290602.chk"
 ------------------
 Si11-anion-doublet
 ------------------
 Charge = -1 Multiplicity = 2

                         Standard orientation:
 ---------------------------------------------------------------------
 Center     Atomic      Atomic             Coordinates (Angstroms)
 Number     Number       Type             X           Y           Z
 ---------------------------------------------------------------------
      1         14           0        0.084946   -3.243162    0.000000
      2         14           0       -1.789214   -1.668109    0.000000
      3         14           0       -1.679373    0.353871    1.355615
      4         14           0        1.560284    2.328069    0.000000
      5         14           0        0.567889   -1.236935   -1.270581
      6         14           0        0.567889   -1.236935    1.270581
      7         14           0       -1.679373    0.353871   -1.355615
      8         14           0        0.567889    1.064719    1.983023
      9         14           0       -0.994477    2.244112    0.000000
     10         14           0        2.225653   -0.024219    0.000000
     11         14           0        0.567889    1.064719   -1.983023
 ---------------------------------------------------------------------

 SCF Done:  E(UB3LYP) =  -3184.68094966     A.U. after    1 cycles

 The electronic state is 2-A'.
 Alpha  occ. eigenvalues --  -66.00318 -65.99951 -65.99433 -65.99433 -65.99380
 Alpha  occ. eigenvalues --  -65.99380 -65.98542 -65.98469 -65.98467 -65.98405
 Alpha  occ. eigenvalues --  -65.98405  -5.17168  -5.16904  -5.16580  -5.16576
 Alpha  occ. eigenvalues --   -5.16291  -5.16290  -5.15577  -5.15446  -5.15443
 Alpha  occ. eigenvalues --   -5.15409  -5.15381  -3.53032  -3.52947  -3.52827
 Alpha  occ. eigenvalues --   -3.52789  -3.52773  -3.52481  -3.52438  -3.52424
 Alpha  occ. eigenvalues --   -3.52399  -3.52388  -3.52215  -3.52214  -3.52158
 Alpha  occ. eigenvalues --   -3.52158  -3.52040  -3.52040  -3.51920  -3.51920
 Alpha  occ. eigenvalues --   -3.51452  -3.51324  -3.51322  -3.51312  -3.51273
 Alpha  occ. eigenvalues --   -3.51269  -3.51250  -3.51248  -3.51175  -3.51169
 Alpha  occ. eigenvalues --   -3.51167  -3.51122  -3.51116  -3.50987  -3.50927
 Alpha  occ. eigenvalues --   -0.54726  -0.47180  -0.44845  -0.43643  -0.36571
 Alpha  occ. eigenvalues --   -0.34037  -0.30197  -0.29823  -0.28916  -0.24416
 Alpha  occ. eigenvalues --   -0.21488  -0.18081  -0.16447  -0.15787  -0.14459
 Alpha  occ. eigenvalues --   -0.13795  -0.12937  -0.12814  -0.10674  -0.09273
 Alpha  occ. eigenvalues --   -0.09266  -0.08604  -0.05751
 Alpha virt. eigenvalues --    0.02064   0.02824   0.03680   0.05285   0.06009
 Alpha virt. eigenvalues --    0.07004   0.07635   0.07957   0.08088   0.08491
 Alpha virt. eigenvalues --    0.09016   0.09936   0.09993   0.10406   0.11099

  Beta  occ. eigenvalues --  -66.00221 -65.99803 -65.99441 -65.99441 -65.99368
  Beta  occ. eigenvalues --  -65.99368 -65.98527 -65.98442 -65.98389 -65.98361
  Beta  occ. eigenvalues --  -65.98361  -5.17071  -5.16736  -5.16588  -5.16584
  Beta  occ. eigenvalues --   -5.16279  -5.16279  -5.15560  -5.15395  -5.15392
  Beta  occ. eigenvalues --   -5.15376  -5.15304  -3.52972  -3.52772  -3.52661
  Beta  occ. eigenvalues --   -3.52621  -3.52443  -3.52439  -3.52426  -3.52414
  Beta  occ. eigenvalues --   -3.52393  -3.52366  -3.52226  -3.52224  -3.52156
  Beta  occ. eigenvalues --   -3.52156  -3.51995  -3.51994  -3.51915  -3.51914
  Beta  occ. eigenvalues --   -3.51448  -3.51294  -3.51276  -3.51255  -3.51246
  Beta  occ. eigenvalues --   -3.51208  -3.51196  -3.51140  -3.51136  -3.51121
  Beta  occ. eigenvalues --   -3.51050  -3.51045  -3.51024  -3.50956  -3.50852
  Beta  occ. eigenvalues --   -0.54529  -0.46753  -0.44543  -0.43526  -0.35994
  Beta  occ. eigenvalues --   -0.33333  -0.29961  -0.29699  -0.28769  -0.23951
  Beta  occ. eigenvalues --   -0.20371  -0.17470  -0.16294  -0.14998  -0.14198
  Beta  occ. eigenvalues --   -0.13628  -0.12667  -0.12617  -0.10249  -0.09098
  Beta  occ. eigenvalues --   -0.08871  -0.08108
  Beta virt. eigenvalues --   -0.00804   0.02264   0.03100   0.03893   0.05454
  Beta virt. eigenvalues --    0.06375   0.07387   0.07742   0.08131   0.08220
  Beta virt. eigenvalues --    0.08541   0.09231   0.10098   0.10355   0.10545

 Mulliken charges and spin densities:
               1          2
     1  Si  -0.324606   0.191130
     2  Si  -0.214143   0.296208
     3  Si  -0.285042   0.073988
     4  Si  -0.213903   0.189612
     5  Si   0.165244   0.011166
     6  Si   0.165244   0.011166
     7  Si  -0.285042   0.073988
     8  Si   0.437526   0.013869
     9  Si  -0.064725   0.055790
    10  Si  -0.818078   0.069214
    11  Si   0.437526   0.013869
 Sum of Mulliken charges =  -1.00000   1.00000

 Dipole moment (field-independent basis, Debye):
    X=             -0.0505    Y=             -1.7196    Z=              0.0000  Tot=              1.7203
 Quadrupole moment (field-independent basis, Debye-Ang):
   XX=           -173.7234   YY=           -179.8138   ZZ=           -168.3780
   XY=             -1.3451   XZ=              0.0000   YZ=              0.0000

  Exact polarizability:     365.505      18.536     433.935       0.000       0.000     336.156
 Approx polarizability:    1148.969      71.846    1337.897       0.000       0.000    1067.930

                      1                      2                      3
                     A"                     A'                     A"
 Frequencies --     70.3701                90.0063               112.4597
 Red. masses --     27.9769                27.9769                27.9769
 Frc consts  --      0.0816                 0.1335                 0.2085
 IR Inten    --      0.5621                 0.7752                 2.4549

                      4                      5                      6
                     A"                     A'                     A'
 Frequencies --    134.9044               144.8069               162.7911
 Red. masses --     27.9769                27.9769                27.9769
 Frc consts  --      0.3000                 0.3456                 0.4368
 IR Inten    --      0.7190                 0.1396                 0.5393

                      7                      8                      9
                     A'                     A'                     A"
 Frequencies --    172.1209               199.6142               201.6867
 Red. masses --     27.9769                27.9769                27.9769
 Frc consts  --      0.4883                 0.6568                 0.6705
 IR Inten    --      0.3902                 0.5960                 0.0360

                     10                     11                     12
                     A"                     A'                     A"
 Frequencies --    209.5721               210.9086               229.5197
 Red. masses --     27.9769                27.9769                27.9769
 Frc consts  --      0.7240                 0.7332                 0.8683
 IR Inten    --      0.0121                 4.5028                 0.1414

                     13                     14                     15
                     A'                     A"                     A"
 Frequencies --    252.7995               256.6020               257.7080
 Red. masses --     27.9769                27.9769                27.9769
 Frc consts  --      1.0534                 1.0854                 1.0947
 IR Inten    --      0.2544                 0.1576                 0.4173

                     16                     17                     18
                     A'                     A'                     A'
 Frequencies --    267.5681               269.2723               296.2929
 Red. masses --     27.9769                27.9769                27.9769
 Frc consts  --      1.1801                 1.1952                 1.4471
 IR Inten    --      0.4045                 0.5519                 0.9197

                     19                     20                     21
                     A"                     A'                     A'
 Frequencies --    300.2748               318.0683               334.0352
 Red. masses --     27.9769                27.9769                27.9769
 Frc consts  --      1.4862                 1.6676                 1.8392
 IR Inten    --      0.2233                 0.1410                 0.1558

                     22                     23                     24
                     A"                     A'                     A'
 Frequencies --    352.2228               355.0287               378.6041
 Red. masses --     27.9769                27.9769                27.9769
 Frc consts  --      2.0450                 2.0777                 2.3628
 IR Inten    --      0.5406                 4.8386                 2.4644

                     25                     26                     27
                     A"                     A'                     A'
 Frequencies --    406.0346               410.0049               446.8499
 Red. masses --     27.9769                27.9769                27.9769
 Frc consts  --      2.7175                 2.7709                 3.2913
 IR Inten    --      3.3703                 0.2685                 8.0026

 - Thermochemistry -
 -------------------
 Temperature   298.150 Kelvin.  Pressure   1.00000 Atm.
 Atom     1 has atomic number 14 and mass  27.97693

 Molecular mass:   307.74621 amu.
 Principal axes and moments of inertia in atomic units:
                           1         2         3
     Eigenvalues --  3263.091204468.627194780.67218
           X            0.22738   0.97381   0.00000
           Y            0.97381  -0.22738   0.00000
           Z           -0.00000  -0.00000   1.00000
 This molecule is an asymmetric top.
 Rotational symmetry number  1.
 Warning -- assumption of classical behavior for rotation
           may cause significant error
 Rotational temperatures (Kelvin)      0.02654     0.01938     0.01812
 Rotational constants (GHZ):           0.55308     0.40387     0.37751
 Zero-point vibrational energy      40913.0 (Joules/Mol)
                                    9.77845 (Kcal/Mol)
 Warning -- explicit consideration of  27 degrees of freedom as
           vibrations may cause significant error
 Vibrational temperatures:    101.25   129.50   161.80   194.10   208.34
          (Kelvin)            234.22   247.64   287.20   290.18   301.53
                              303.45   330.23   363.72   369.19   370.78
                              384.97   387.42   426.30   432.03   457.63
                              480.60   506.77   510.81   544.73   584.19
                              589.91   642.92

 Zero-point correction=                           0.015583 (Hartree/Particle)
 Thermal correction to Energy=                    0.031843
 Thermal correction to Enthalpy=                  0.032787
 Thermal correction to Gibbs Free Energy=        -0.028299
 Sum of electronic and zero-point Energies=          -3184.665367
 Sum of electronic and thermal Energies=             -3184.649107
 Sum of electronic and thermal Enthalpies=           -3184.648163
 Sum of electronic and thermal Free Energies=        -3184.709249

                     E (Thermal)             CV                S
                      KCal/Mol        Cal/Mol-Kelvin    Cal/Mol-Kelvin
 Total                   19.982             52.788            128.566
 Electronic               0.000              0.000              1.377
 Translational            0.889              2.981             43.069
 Rotational               0.889              2.981             32.611
 Vibrational             18.204             46.827             51.510
 Vibration     1          0.598              1.968              4.143
 Vibration     2          0.602              1.956              3.660
 Vibration     3          0.607              1.939              3.226
 Vibration     4          0.613              1.918              2.875
 Vibration     5          0.616              1.908              2.739
 Vibration     6          0.623              1.888              2.517
 Vibration     7          0.626              1.877              2.412
 Vibration     8          0.638              1.840              2.137
 Vibration     9          0.639              1.837              2.118
 Vibration    10          0.642              1.826              2.047
 Vibration    11          0.643              1.824              2.036
 Vibration    12          0.652              1.796              1.883
 Vibration    13          0.664              1.758              1.711
 Vibration    14          0.666              1.752              1.685
 Vibration    15          0.667              1.750              1.677
 Vibration    16          0.673              1.733              1.612
 Vibration    17          0.674              1.730              1.601
 Vibration    18          0.690              1.681              1.438
 Vibration    19          0.693              1.673              1.415
 Vibration    20          0.704              1.639              1.320
 Vibration    21          0.716              1.608              1.240
 Vibration    22          0.729              1.571              1.156
 Vibration    23          0.731              1.565              1.144
 Vibration    24          0.749              1.516              1.045
 Vibration    25          0.771              1.457              0.941
 Vibration    26          0.774              1.449              0.927
 Vibration    27          0.806              1.368              0.805

                           ! Non-Optimized Parameters !
 Normal termination of Gaussian 16 at Tue May  6 04:57:29 2025.
