 Gaussian 03, Revision E.01,

 --------------------------------------
 # hf/6-311G(d) freq scfcyc=500 scf=xqc
 --------------------------------------

 ------
 si11-c
 ------
 Symbolic Z-matrix:
 Charge =  1 Multiplicity = 2

 SCF Done:  E(UHF) =  -3177.83753397     A.U. after   41 cycles
 Normal termination of Gaussian 03 at Fri Jun 17 16:46:20 2011.
 Gaussian 03:  AM64L-G03RevE.01 11-Sep-2007

 ----------------------------------------------------------------------
 # b3lyp/6-311+G(d) opt=(readfc,noeigentest,maxcycle=500) freq scfcyc=5
 00 optcyc=500 scf=xqc geom=allcheck guess=read
 ----------------------------------------------------------------------

 ------
 No Z-matrix found on checkpoint file.
 Cartesian coordinates read from the checkpoint file:
 S9L-ne-d-01.chk
 Charge =  1 Multiplicity = 2

 SCF Done:  E(UB+HF-LYP) =  -3184.34781480     A.U. after   24 cycles
 SCF Done:  E(UB+HF-LYP) =  -3184.35292213     A.U. after   23 cycles
 SCF Done:  E(UB+HF-LYP) =  -3184.35580497     A.U. after   20 cycles
 SCF Done:  E(UB+HF-LYP) =  -3184.35624223     A.U. after   23 cycles
 SCF Done:  E(UB+HF-LYP) =  -3184.35631432     A.U. after   18 cycles
 SCF Done:  E(UB+HF-LYP) =  -3184.35632574     A.U. after   18 cycles
 SCF Done:  E(UB+HF-LYP) =  -3184.35632999     A.U. after   17 cycles
 Optimization completed.
    -- Stationary point found.

 1\1\GINC-NODE190\FOpt\UB3LYP\6-311+G(d)\Si11(1+,2)\TAM\17-Jun-2011\0\\
 # b3lyp/6-311+G(d) opt=(readfc,noeigentest,maxcycle=500) freq scfcyc=5
 00 optcyc=500 scf=xqc geom=allcheck guess=read\\si11-c\\1,2\Si,-3.2458
 637601,0.4273652515,0.000000225\Si,-1.2285438919,1.8668693195,-0.00001
 27812\Si,0.6472631862,1.2233444106,1.3325280331\Si,1.9077735908,-0.782
 72694,0.0000091401\Si,-1.3708710361,-0.5005200542,-1.2433976602\Si,-1.
 3708661255,-0.5005044033,1.243391659\Si,0.6472711815,1.2233387099,-1.3
 32528776\Si,0.7269970472,-1.1132418819,2.2363746349\Si,2.5953654006,1.

 Normal termination of Gaussian 03 at Fri Jun 17 17:40:07 2011.

 --------------------------------------------------------------------
 #N Geom=AllCheck Guess=Read SCRF=Check GenChk UB3LYP/6-311+G(d) Freq
 --------------------------------------------------------------------

 si11-c
 ------
 Redundant internal coordinates taken from checkpoint file:
 S9L-ne-d-01.chk
 Charge =  1 Multiplicity = 2

                         Standard orientation:
 ---------------------------------------------------------------------
 Center     Atomic     Atomic              Coordinates (Angstroms)
 Number     Number      Type              X           Y           Z
 ---------------------------------------------------------------------
    1         14             0        3.229570   -0.536797    0.000000
    2         14             0        1.164762   -1.907315   -0.000013
    3         14             0       -0.688230   -1.200775    1.332528
    4         14             0       -1.880236    0.846742    0.000009
    5         14             0        1.387000    0.453913   -1.243398
    6         14             0        1.386995    0.453898    1.243392
    7         14             0       -0.688238   -1.200769   -1.332529
    8         14             0       -0.688966    1.137171    2.236375
    9         14             0       -2.647176   -1.488615    0.000004
   10         14             0        0.113493    2.305370    0.000002
   11         14             0       -0.688973    1.137176   -2.236370
 ---------------------------------------------------------------------

 SCF Done:  E(UB+HF-LYP) =  -3184.35632999     A.U. after    1 cycles

 The electronic state is 2-A.
 Alpha  occ. eigenvalues --  -66.28218 -66.27793 -66.27793 -66.27764 -66.27628
 Alpha  occ. eigenvalues --  -66.27581 -66.27431 -66.27431 -66.27253 -66.27253
 Alpha  occ. eigenvalues --  -66.26611  -5.44888  -5.44857  -5.44852  -5.44770
 Alpha  occ. eigenvalues --   -5.44403  -5.44393  -5.44285  -5.44281  -5.44205
 Alpha  occ. eigenvalues --   -5.44205  -5.43651  -3.80779  -3.80775  -3.80772
 Alpha  occ. eigenvalues --   -3.80714  -3.80676  -3.80630  -3.80604  -3.80551
 Alpha  occ. eigenvalues --   -3.80517  -3.80479  -3.80476  -3.80404  -3.80225
 Alpha  occ. eigenvalues --   -3.80213  -3.80210  -3.80185  -3.80177  -3.80131
 Alpha  occ. eigenvalues --   -3.80095  -3.80056  -3.80030  -3.80029  -3.79969
 Alpha  occ. eigenvalues --   -3.79969  -3.79956  -3.79955  -3.79916  -3.79914
 Alpha  occ. eigenvalues --   -3.79904  -3.79904  -3.79551  -3.79429  -3.79252
 Alpha  occ. eigenvalues --   -0.83734  -0.75464  -0.73122  -0.72164  -0.63982
 Alpha  occ. eigenvalues --   -0.60284  -0.58298  -0.57339  -0.56327  -0.53136
 Alpha  occ. eigenvalues --   -0.49259  -0.44402  -0.42781  -0.42566  -0.41669
 Alpha  occ. eigenvalues --   -0.40892  -0.40720  -0.40181  -0.39207  -0.38974
 Alpha  occ. eigenvalues --   -0.37553  -0.33520
 Alpha virt. eigenvalues --   -0.25546  -0.25491  -0.23252  -0.22674  -0.21579
 Alpha virt. eigenvalues --   -0.19921  -0.19096  -0.18453  -0.18437  -0.17930
 Alpha virt. eigenvalues --   -0.17208  -0.17163  -0.15660  -0.14593  -0.11913

  Beta  occ. eigenvalues --  -66.28129 -66.27774 -66.27774 -66.27595 -66.27590
  Beta  occ. eigenvalues --  -66.27568 -66.27425 -66.27425 -66.27232 -66.27232
  Beta  occ. eigenvalues --  -66.26527  -5.44840  -5.44835  -5.44796  -5.44588
  Beta  occ. eigenvalues --   -5.44379  -5.44359  -5.44261  -5.44257  -5.44199
  Beta  occ. eigenvalues --   -5.44199  -5.43549  -3.80767  -3.80765  -3.80625
  Beta  occ. eigenvalues --   -3.80604  -3.80574  -3.80508  -3.80435  -3.80427
  Beta  occ. eigenvalues --   -3.80406  -3.80403  -3.80355  -3.80223  -3.80205
  Beta  occ. eigenvalues --   -3.80192  -3.80187  -3.80164  -3.80156  -3.80125
  Beta  occ. eigenvalues --   -3.80067  -3.79997  -3.79993  -3.79969  -3.79968
  Beta  occ. eigenvalues --   -3.79957  -3.79957  -3.79942  -3.79893  -3.79885
  Beta  occ. eigenvalues --   -3.79876  -3.79876  -3.79362  -3.79356  -3.79191
  Beta  occ. eigenvalues --   -0.83453  -0.75043  -0.72902  -0.72045  -0.63525
  Beta  occ. eigenvalues --   -0.59589  -0.58086  -0.57198  -0.56156  -0.52582
  Beta  occ. eigenvalues --   -0.48549  -0.43047  -0.42524  -0.41961  -0.41490
  Beta  occ. eigenvalues --   -0.40566  -0.40472  -0.40106  -0.38946  -0.38535
  Beta  occ. eigenvalues --   -0.37100
  Beta virt. eigenvalues --   -0.28428  -0.25392  -0.25060  -0.23059  -0.21802
  Beta virt. eigenvalues --   -0.21103  -0.19770  -0.18962  -0.18266  -0.18179
  Beta virt. eigenvalues --   -0.17688  -0.17043  -0.16727  -0.15485  -0.14133

 Mulliken atomic charges:
              1
     1  Si   0.688967
     2  Si  -0.474823
     3  Si   0.703999
     4  Si   0.627660
     5  Si   0.082134
     6  Si   0.082141
     7  Si   0.704009
     8  Si  -0.591672
     9  Si  -0.636926
    10  Si   0.406177
    11  Si  -0.591666
 Sum of Mulliken charges=   1.00000

 Dipole moment (field-independent basis, Debye):
    X=     0.5489    Y=    -0.4247    Z=     0.0000  Tot=     0.6940
 Quadrupole moment (field-independent basis, Debye-Ang):
   XX=  -116.9593   YY=  -125.5099   ZZ=  -125.7965
   XY=     0.5088   XZ=     0.0000   YZ=     0.0000

  Exact polarizability: 354.912   1.559 290.365   0.000   0.000 281.491
 Approx polarizability:1220.452  19.815 997.676  -0.001   0.000 982.016

                     1                      2                      3
                     A                      A                      A
 Frequencies --    98.3250               113.6538               127.9048
 Red. masses --    27.9769                27.9769                27.9769
 Frc consts  --     0.1594                 0.2129                 0.2697
 IR Inten    --     0.0994                 0.2334                 1.0637

                     4                      5                      6
                     A                      A                      A
 Frequencies --   134.5599               148.9684               160.6412
 Red. masses --    27.9769                27.9769                27.9769
 Frc consts  --     0.2985                 0.3658                 0.4254
 IR Inten    --     0.0372                 0.1276                 0.8807

                     7                      8                      9
                     A                      A                      A
 Frequencies --   177.7848               208.1179               216.0093
 Red. masses --    27.9769                27.9769                27.9769
 Frc consts  --     0.5210                 0.7140                 0.7691
 IR Inten    --     0.2059                 0.0030                 0.6503

                    10                     11                     12
                     A                      A                      A
 Frequencies --   219.9215               223.8578               238.6026
 Red. masses --    27.9769                27.9769                27.9769
 Frc consts  --     0.7972                 0.8260                 0.9384
 IR Inten    --     4.4928                 2.5766                 0.8801

                    13                     14                     15
                     A                      A                      A
 Frequencies --   246.8299               253.8506               263.0031
 Red. masses --    27.9769                27.9769                27.9769
 Frc consts  --     1.0043                 1.0622                 1.1402
 IR Inten    --     0.1027                 0.2313                 0.8986

                    16                     17                     18
                     A                      A                      A
 Frequencies --   269.9933               285.5684               299.3602
 Red. masses --    27.9769                27.9769                27.9769
 Frc consts  --     1.2016                 1.3442                 1.4772
 IR Inten    --     2.1299                 1.8999                 0.8754

                    19                     20                     21
                     A                      A                      A
 Frequencies --   312.8342               331.9159               342.0885
 Red. masses --    27.9769                27.9769                27.9769
 Frc consts  --     1.6132                 1.8160                 1.9290
 IR Inten    --     0.7816                 3.8414                 5.0853

                    22                     23                     24
                     A                      A                      A
 Frequencies --   351.1154               357.4134               413.6859
 Red. masses --    27.9769                27.9769                27.9769
 Frc consts  --     2.0321                 2.1057                 2.8209
 IR Inten    --     0.7058                 4.1589                17.0430

                    25                     26                     27
                     A                      A                      A
 Frequencies --   418.8909               438.2001               454.9231
 Red. masses --    27.9769                27.9769                27.9769
 Frc consts  --     2.8924                 3.1652                 3.4113
 IR Inten    --    16.9905                 2.7702                19.4418

 - Thermochemistry -
 -------------------
 Temperature   298.150 Kelvin.  Pressure   1.00000 Atm.
 Atom  1 has atomic number 14 and mass  27.97693

 Molecular mass:   307.74621 amu.
 Principal axes and moments of inertia in atomic units:
                           1         2         3
     EIGENVALUES --  3466.969814469.135594609.97782
           X            1.00000   0.00000   0.00000
           Y            0.00000   1.00000   0.00000
           Z            0.00000   0.00000   1.00000
 This molecule is an asymmetric top.
 Rotational symmetry number  1.
 Warning -- assumption of classical behavior for rotation
           may cause significant error
 Rotational temperatures (Kelvin)      0.02498     0.01938     0.01879
 Rotational constants (GHZ):           0.52055     0.40382     0.39149
 Zero-point vibrational energy      42515.4 (Joules/Mol)
                                   10.16143 (Kcal/Mol)
 Warning -- explicit consideration of  27 degrees of freedom as
           vibrations may cause significant error
 Vibrational temperatures:    141.47   163.52   184.03   193.60   214.33
          (Kelvin)            231.13   255.79   299.43   310.79   316.42
                              322.08   343.30   355.13   365.23   378.40
                              388.46   410.87   430.71   450.10   477.55
                              492.19   505.18   514.24   595.20   602.69
                              630.47   654.53

 Zero-point correction=                           0.016193 (Hartree/Particle)
 Thermal correction to Energy=                    0.032083
 Thermal correction to Enthalpy=                  0.033028
 Thermal correction to Gibbs Free Energy=        -0.026885
 Sum of electronic and zero-point Energies=          -3184.340137
 Sum of electronic and thermal Energies=             -3184.324247
 Sum of electronic and thermal Enthalpies=           -3184.323302
 Sum of electronic and thermal Free Energies=        -3184.383215

                     E (Thermal)             CV                S
                      KCal/Mol        Cal/Mol-Kelvin    Cal/Mol-Kelvin
 Total                   20.133             52.361            126.097
 Electronic               0.000              0.000              1.377
 Translational            0.889              2.981             43.069
 Rotational               0.889              2.981             32.635
 Vibrational             18.355             46.399             49.015
 Vibration  1             0.604              1.950              3.487
 Vibration  2             0.607              1.938              3.206
 Vibration  3             0.611              1.925              2.977
 Vibration  4             0.613              1.919              2.880
 Vibration  5             0.618              1.904              2.685
 Vibration  6             0.622              1.891              2.542
 Vibration  7             0.628              1.870              2.352
 Vibration  8             0.641              1.828              2.060
 Vibration  9             0.645              1.817              1.992
 Vibration 10             0.647              1.811              1.960
 Vibration 11             0.649              1.805              1.928
 Vibration 12             0.657              1.781              1.813
 Vibration 13             0.661              1.768              1.753
 Vibration 14             0.665              1.756              1.704
 Vibration 15             0.670              1.741              1.642
 Vibration 16             0.674              1.728              1.596
 Vibration 17             0.683              1.700              1.500
 Vibration 18             0.692              1.675              1.420
 Vibration 19             0.701              1.649              1.347
 Vibration 20             0.714              1.612              1.251
 Vibration 21             0.721              1.591              1.202
 Vibration 22             0.728              1.573              1.161
 Vibration 23             0.733              1.560              1.133
 Vibration 24             0.777              1.441              0.914
 Vibration 25             0.782              1.429              0.896
 Vibration 26             0.798              1.387              0.832
 Vibration 27             0.813              1.350              0.781

 Optimization completed.
    -- Stationary point found.

 1\1\GINC-NODE190\Freq\UB3LYP\6-311+G(d)\Si11(1+,2)\TAM\17-Jun-2011\0\\
 #N Geom=AllCheck Guess=Read SCRF=Check GenChk UB3LYP/6-311+G(d) Freq\\
 si11-c\\1,2\Si,-3.2458637601,0.4273652515,0.000000225\Si,-1.2285438919
 ,1.8668693195,-0.0000127812\Si,0.6472631862,1.2233444106,1.3325280331\
 Si,1.9077735908,-0.78272694,0.0000091401\Si,-1.3708710361,-0.500520054
 2,-1.2433976602\Si,-1.3708661255,-0.5005044033,1.243391659\Si,0.647271
 1815,1.2233387099,-1.332528776\Si,0.7269970472,-1.1132418819,2.2363746
 349\Si,2.5953654006,1.5772109624,0.0000043578\Si,-0.0355307904,-2.3078

 Normal termination of Gaussian 03 at Fri Jun 17 18:09:56 2011.
