 Gaussian 03, Revision E.01,

 ----------------------------------------------------------------------
 # b3lyp/LANL2DZ opt=(calcall,noeigentest,maxcycle=500) scfcyc=500 scf=
 xqc
 ----------------------------------------------------------------------

 ------
 si11-n
 ------
 Symbolic Z-matrix:
 Charge =  0 Multiplicity = 1

 SCF Done:  E(RB+HF-LYP) =  -42.4124341511     A.U. after   19 cycles
 SCF Done:  E(RB+HF-LYP) =  -42.4248898965     A.U. after   17 cycles
 SCF Done:  E(RB+HF-LYP) =  -42.4370600363     A.U. after   18 cycles
 SCF Done:  E(RB+HF-LYP) =  -42.4435694012     A.U. after   18 cycles
 SCF Done:  E(RB+HF-LYP) =  -42.4484129999     A.U. after   18 cycles
 SCF Done:  E(RB+HF-LYP) =  -42.4497764771     A.U. after   21 cycles
 SCF Done:  E(RB+HF-LYP) =  -42.4527086136     A.U. after   21 cycles
 SCF Done:  E(RB+HF-LYP) =  -42.4541118286     A.U. after   19 cycles
 SCF Done:  E(RB+HF-LYP) =  -42.4542416139     A.U. after   17 cycles
 SCF Done:  E(RB+HF-LYP) =  -42.4542463477     A.U. after   12 cycles
 Optimization completed.
    -- Stationary point found.
 Normal termination of Gaussian 03 at Mon Apr  4 16:35:19 2011.

 ----------------------------------------------------------------------
 # b3lyp/6-31G(d) opt=(readfc,noeigentest,maxcycle=500) freq scfcyc=500
  optcyc=500 geom=allcheck guess=read scf=xqc
 ----------------------------------------------------------------------

 si11-n
 ------
 Redundant internal coordinates taken from checkpoint file:
 S9L-ne-d-01.chk
 Charge =  0 Multiplicity = 1

 SCF Done:  E(RB+HF-LYP) =  -3184.35803915     A.U. after   20 cycles
 SCF Done:  E(RB+HF-LYP) =  -3184.35806831     A.U. after   15 cycles
 SCF Done:  E(RB+HF-LYP) =  -3184.35807025     A.U. after   12 cycles
 Optimization completed.
 Normal termination of Gaussian 03 at Mon Apr  4 16:53:27 2011.

 ------------------------------------------------------------------
 #N Geom=AllCheck Guess=Read SCRF=Check GenChk RB3LYP/6-31G(d) Freq
 ------------------------------------------------------------------

 si11-n
 ------
 Redundant internal coordinates taken from checkpoint file:
 S9L-ne-d-01.chk
 Charge =  0 Multiplicity = 1

 SCF Done:  E(RB+HF-LYP) =  -3184.35807025     A.U. after    1 cycles
 Normal termination of Gaussian 03 at Mon Apr  4 17:02:46 2011.

 ----------------------------------------------------------------------
 # b3lyp/6-311G(d) opt=(readfc,noeigentest,maxcycle=500) freq scfcyc=50
 0 optcyc=500 geom=allcheck guess=read scf=xqc
 ----------------------------------------------------------------------

 si11-n
 ------
 Redundant internal coordinates taken from checkpoint file:
 S9L-ne-d-01.chk
 Charge =  0 Multiplicity = 1

 SCF Done:  E(RB+HF-LYP) =  -3184.58891835     A.U. after   14 cycles
 SCF Done:  E(RB+HF-LYP) =  -3184.58895984     A.U. after   15 cycles
 Normal termination of Gaussian 03 at Mon Apr  4 17:10:50 2011.

 -------------------------------------------------------------------
 #N Geom=AllCheck Guess=Read SCRF=Check GenChk RB3LYP/6-311G(d) Freq
 -------------------------------------------------------------------

 si11-n
 ------
 Redundant internal coordinates taken from checkpoint file:
 S9L-ne-d-01.chk
 Charge =  0 Multiplicity = 1

 SCF Done:  E(RB+HF-LYP) =  -3184.58895984     A.U. after    2 cycles
 Normal termination of Gaussian 03 at Mon Apr  4 17:30:37 2011.
 Gaussian 03:  AM64L-G03RevE.01 11-Sep-2007

 ----------------------------------------------------------------------
 # b3lyp/6-311+G(d) opt=(readfc,noeigentest,maxcycle=500) freq scfcyc=5
 00 optcyc=500 scf=xqc geom=allcheck guess=read
 ----------------------------------------------------------------------

 si11-n
 ------
 Redundant internal coordinates taken from checkpoint file:
 S9L-ne-d-01.chk
 Charge =  0 Multiplicity = 1

 SCF Done:  E(RB+HF-LYP) =  -3184.59688736     A.U. after   14 cycles
 SCF Done:  E(RB+HF-LYP) =  -3184.59690071     A.U. after   16 cycles
    -- Stationary point found.
 Normal termination of Gaussian 03 at Mon Apr  4 17:44:58 2011.

                         Standard orientation:
 ---------------------------------------------------------------------
 Center     Atomic     Atomic              Coordinates (Angstroms)
 Number     Number      Type              X           Y           Z
 ---------------------------------------------------------------------
    1         14             0       -3.276393    0.440846   -0.000008
    2         14             0       -1.250661    1.907927   -0.000008
    3         14             0        0.656568    1.199538    1.294818
    4         14             0        2.105853   -0.907789    0.000013
    5         14             0       -1.438969   -0.525363   -1.220940
    6         14             0       -1.438972   -0.525353    1.220929
    7         14             0        0.656571    1.199528   -1.294819
    8         14             0        0.721165   -1.093780    2.175926
    9         14             0        2.572318    1.620734   -0.000001
   10         14             0       -0.028660   -2.222496    0.000005
   11         14             0        0.721179   -1.093792   -2.175915
 ---------------------------------------------------------------------

 SCF Done:  E(RB+HF-LYP) =  -3184.59690071     A.U. after    1 cycles

 The electronic state is 1-A.
 Alpha  occ. eigenvalues --  -66.13554 -66.13553 -66.13350 -66.12774 -66.12752
 Alpha  occ. eigenvalues --  -66.12751 -66.12684 -66.12684 -66.12624 -66.12565
 Alpha  occ. eigenvalues --  -66.11958  -5.30649  -5.30643  -5.30142  -5.29764
 Alpha  occ. eigenvalues --   -5.29760  -5.29721  -5.29619  -5.29618  -5.29510
 Alpha  occ. eigenvalues --   -5.29448  -5.28994  -3.66597  -3.66593  -3.66405
 Alpha  occ. eigenvalues --   -3.66367  -3.66254  -3.66250  -3.66000  -3.65858
 Alpha  occ. eigenvalues --   -3.65775  -3.65689  -3.65674  -3.65503  -3.65497
 Alpha  occ. eigenvalues --   -3.65493  -3.65486  -3.65431  -3.65430  -3.65417
 Alpha  occ. eigenvalues --   -3.65416  -3.65413  -3.65391  -3.65391  -3.65368
 Alpha  occ. eigenvalues --   -3.65312  -3.65272  -3.65252  -3.65248  -3.65221
 Alpha  occ. eigenvalues --   -3.65097  -3.65075  -3.64807  -3.64772  -3.64645
 Alpha  occ. eigenvalues --   -0.68937  -0.60889  -0.58841  -0.57456  -0.49415
 Alpha  occ. eigenvalues --   -0.46548  -0.43683  -0.42927  -0.41925  -0.38476
 Alpha  occ. eigenvalues --   -0.34961  -0.30428  -0.28665  -0.28392  -0.27725
 Alpha  occ. eigenvalues --   -0.26825  -0.26234  -0.25955  -0.24532  -0.24427
 Alpha  occ. eigenvalues --   -0.23533  -0.19782
 Alpha virt. eigenvalues --   -0.11787  -0.11533  -0.10252  -0.09051  -0.08056
 Alpha virt. eigenvalues --   -0.05742  -0.05394  -0.05117  -0.04499  -0.04048
 Alpha virt. eigenvalues --   -0.03910  -0.03653  -0.01861  -0.01424  -0.00336

 Mulliken atomic charges:
              1
     1  Si   0.540061
     2  Si  -0.566703
     3  Si   0.770829
     4  Si   0.397978
     5  Si  -0.012892
     6  Si  -0.012882
     7  Si   0.770854
     8  Si  -0.823204
     9  Si  -0.734268
    10  Si   0.493438
    11  Si  -0.823212
 Sum of Mulliken charges=   0.00000

 Dipole moment (field-independent basis, Debye):
    X=    -1.0662    Y=     0.5575    Z=     0.0000  Tot=     1.2032
 Quadrupole moment (field-independent basis, Debye-Ang):
   XX=  -148.0246   YY=  -147.7170   ZZ=  -145.4180
   XY=     1.9321   XZ=     0.0000   YZ=     0.0000

  Exact polarizability: 392.881  -2.073 319.357   0.000   0.000 299.894
 Approx polarizability:1316.803 -17.6901063.648   0.001   0.0001001.239

                     1                      2                      3
                     A                      A                      A
 Frequencies --    92.1265               102.8421               132.4306
 Red. masses --    27.9769                27.9769                27.9769
 Frc consts  --     0.1399                 0.1743                 0.2891
 IR Inten    --     0.2153                 0.4848                 0.8906

                     4                      5                      6
                     A                      A                      A
 Frequencies --   139.2528               141.8312               153.4975
 Red. masses --    27.9769                27.9769                27.9769
 Frc consts  --     0.3196                 0.3316                 0.3884
 IR Inten    --     0.0080                 0.0530                 1.2044

                     7                      8                      9
                     A                      A                      A
 Frequencies --   180.6180               201.2087               216.2946
 Red. masses --    27.9769                27.9769                27.9769
 Frc consts  --     0.5377                 0.6673                 0.7712
 IR Inten    --     0.1396                 0.3307                 4.2333

                    10                     11                     12
                     A                      A                      A
 Frequencies --   218.3933               223.5511               235.1406
 Red. masses --    27.9769                27.9769                27.9769
 Frc consts  --     0.7862                 0.8238                 0.9114
 IR Inten    --     0.7924                 1.3636                 0.0150

                    13                     14                     15
                     A                      A                      A
 Frequencies --   243.8310               250.8298               270.3735
 Red. masses --    27.9769                27.9769                27.9769
 Frc consts  --     0.9800                 1.0371                 1.2050
 IR Inten    --     0.2173                 0.7215                 1.2662

                    16                     17                     18
                     A                      A                      A
 Frequencies --   275.1837               286.7502               304.5082
 Red. masses --    27.9769                27.9769                27.9769
 Frc consts  --     1.2482                 1.3554                 1.5284
 IR Inten    --     0.9715                 0.1551                 0.7133

                    19                     20                     21
                     A                      A                      A
 Frequencies --   322.1530               339.5164               348.0545
 Red. masses --    27.9769                27.9769                27.9769
 Frc consts  --     1.7107                 1.9001                 1.9968
 IR Inten    --     1.3505                 3.7192                 0.1770

                    22                     23                     24
                     A                      A                      A
 Frequencies --   357.1419               364.4333               403.1469
 Red. masses --    27.9769                27.9769                27.9769
 Frc consts  --     2.1025                 2.1892                 2.6790
 IR Inten    --     1.0078                 2.0577                 6.5523

                    25                     26                     27
                     A                      A                      A
 Frequencies --   407.8031               456.2377               462.0584
 Red. masses --    27.9769                27.9769                27.9769
 Frc consts  --     2.7413                 3.4311                 3.5192
 IR Inten    --     9.7626                 5.2184                12.4811

 - Thermochemistry -
 -------------------
 Temperature   298.150 Kelvin.  Pressure   1.00000 Atm.
 Atom  1 has atomic number 14 and mass  27.97693

 Molecular mass:   307.74621 amu.
 Principal axes and moments of inertia in atomic units:
                           1         2         3
     EIGENVALUES --  3381.977244515.666984739.82320
           X            1.00000   0.00000   0.00000
           Y            0.00000   1.00000   0.00000
           Z            0.00000   0.00000   1.00000
 This molecule is an asymmetric top.
 Rotational symmetry number  1.
 Warning -- assumption of classical behavior for rotation
           may cause significant error
 Rotational temperatures (Kelvin)      0.02561     0.01918     0.01827
 Rotational constants (GHZ):           0.53363     0.39966     0.38076
 Zero-point vibrational energy      42642.1 (Joules/Mol)
                                   10.19172 (Kcal/Mol)
 Warning -- explicit consideration of  27 degrees of freedom as
           vibrations may cause significant error
 Vibrational temperatures:    132.55   147.97   190.54   200.35   204.06
          (Kelvin)            220.85   259.87   289.49   311.20   314.22
                              321.64   338.31   350.82   360.89   389.01
                              395.93   412.57   438.12   463.51   488.49
                              500.77   513.85   524.34   580.04   586.74
                              656.42   664.80

 Zero-point correction=                           0.016242 (Hartree/Particle)
 Thermal correction to Energy=                    0.032128
 Thermal correction to Enthalpy=                  0.033072
 Thermal correction to Gibbs Free Energy=        -0.026286
 Sum of electronic and zero-point Energies=          -3184.580659
 Sum of electronic and thermal Energies=             -3184.564773
 Sum of electronic and thermal Enthalpies=           -3184.563829
 Sum of electronic and thermal Free Energies=        -3184.623187

                     E (Thermal)             CV                S
                      KCal/Mol        Cal/Mol-Kelvin    Cal/Mol-Kelvin
 Total                   20.160             52.290            124.930
 Electronic               0.000              0.000              0.000
 Translational            0.889              2.981             43.069
 Rotational               0.889              2.981             32.648
 Vibrational             18.383             46.328             49.213
 Vibration  1             0.602              1.955              3.614
 Vibration  2             0.605              1.947              3.400
 Vibration  3             0.613              1.921              2.910
 Vibration  4             0.615              1.914              2.814
 Vibration  5             0.615              1.911              2.779
 Vibration  6             0.619              1.899              2.628
 Vibration  7             0.630              1.866              2.322
 Vibration  8             0.638              1.838              2.122
 Vibration  9             0.645              1.816              1.990
 Vibration 10             0.646              1.813              1.972
 Vibration 11             0.649              1.805              1.930
 Vibration 12             0.655              1.787              1.839
 Vibration 13             0.659              1.773              1.775
 Vibration 14             0.663              1.761              1.725
 Vibration 15             0.674              1.728              1.594
 Vibration 16             0.677              1.719              1.563
 Vibration 17             0.684              1.698              1.493
 Vibration 18             0.695              1.665              1.392
 Vibration 19             0.707              1.631              1.299
 Vibration 20             0.719              1.597              1.214
 Vibration 21             0.726              1.579              1.175
 Vibration 22             0.732              1.561              1.135
 Vibration 23             0.738              1.545              1.103
 Vibration 24             0.769              1.463              0.951
 Vibration 25             0.772              1.453              0.934
 Vibration 26             0.814              1.347              0.777
 Vibration 27             0.820              1.334              0.760

 Optimization completed.
    -- Stationary point found.
 Normal termination of Gaussian 03 at Mon Apr  4 18:22:00 2011.
