 Gaussian 03, Revision E.01,

 ----------------------------------------------------------------------
 # b3lyp/LANL2DZ opt=(calcall,noeigentest,maxcycle=500) scfcyc=500 scf=
 xqc
 ----------------------------------------------------------------------

 ------
 si13-c
 ------
 Symbolic Z-matrix:
 Charge =  1 Multiplicity = 2

 SCF Done:  E(UB+HF-LYP) =  -49.9104553806     A.U. after   21 cycles
 SCF Done:  E(UB+HF-LYP) =  -49.9216203620     A.U. after   18 cycles
 SCF Done:  E(UB+HF-LYP) =  -49.9330295911     A.U. after   23 cycles
 SCF Done:  E(UB+HF-LYP) =  -49.9398555166     A.U. after   21 cycles
 SCF Done:  E(UB+HF-LYP) =  -49.9426322725     A.U. after   21 cycles
 SCF Done:  E(UB+HF-LYP) =  -49.9456555453     A.U. after   22 cycles
 SCF Done:  E(UB+HF-LYP) =  -49.9461538685     A.U. after   24 cycles
 SCF Done:  E(UB+HF-LYP) =  -49.9461624092     A.U. after   15 cycles
 Optimization completed.
    -- Stationary point found.
 Normal termination of Gaussian 03 at Sun Jan  8 11:19:22 2012.

 ----------------------------------------------------------------------
 # b3lyp/6-31G(d) opt=(readfc,noeigentest,maxcycle=500) freq scfcyc=500
  optcyc=500 geom=allcheck guess=read scf=xqc
 ----------------------------------------------------------------------

 si13-c
 ------
 Redundant internal coordinates taken from checkpoint file:
 S9L-ne-d-01.chk
 Charge =  1 Multiplicity = 2

 SCF Done:  E(UB+HF-LYP) =  -3763.07238379     A.U. after   28 cycles
 SCF Done:  E(UB+HF-LYP) =  -3763.08217930     A.U. after   18 cycles
 SCF Done:  E(UB+HF-LYP) =  -3763.10537136     A.U. after   22 cycles
 SCF Done:  E(UB+HF-LYP) =  -3763.10542350     A.U. after   23 cycles
 SCF Done:  E(UB+HF-LYP) =  -3763.10543728     A.U. after   23 cycles
 Optimization completed.
 Normal termination of Gaussian 03 at Sun Jan  8 11:47:08 2012.

 ------------------------------------------------------------------
 #N Geom=AllCheck Guess=Read SCRF=Check GenChk UB3LYP/6-31G(d) Freq
 ------------------------------------------------------------------

 si13-c
 ------
 Redundant internal coordinates taken from checkpoint file:
 S9L-ne-d-01.chk
 Charge =  1 Multiplicity = 2

 SCF Done:  E(UB+HF-LYP) =  -3763.10543728     A.U. after    1 cycles
 Normal termination of Gaussian 03 at Sun Jan  8 12:04:23 2012.

 ----------------------------------------------------------------------
 # b3lyp/6-311G(d) opt=(readfc,noeigentest,maxcycle=500) freq scfcyc=50
 0 optcyc=500 geom=allcheck guess=read scf=xqc
 ----------------------------------------------------------------------

 si13-c
 ------
 Redundant internal coordinates taken from checkpoint file:
 S9L-ne-d-01.chk
 Charge =  1 Multiplicity = 2

 SCF Done:  E(UB+HF-LYP) =  -3763.37796590     A.U. after   14 cycles
 SCF Done:  E(UB+HF-LYP) =  -3763.37801218     A.U. after   21 cycles
 Normal termination of Gaussian 03 at Sun Jan  8 12:18:06 2012.

 -------------------------------------------------------------------
 #N Geom=AllCheck Guess=Read SCRF=Check GenChk UB3LYP/6-311G(d) Freq
 -------------------------------------------------------------------

 si13-c
 ------
 Redundant internal coordinates taken from checkpoint file:
 S9L-ne-d-01.chk
 Charge =  1 Multiplicity = 2

 SCF Done:  E(UB+HF-LYP) =  -3763.37801218     A.U. after    1 cycles
 Normal termination of Gaussian 03 at Sun Jan  8 12:52:43 2012.
 Gaussian 03:  AM64L-G03RevE.01 11-Sep-2007

 ----------------------------------------------------------------------
 # b3lyp/6-311+G(d) opt=(readfc,noeigentest,maxcycle=500) freq scfcyc=5
 00 optcyc=500 scf=xqc geom=allcheck guess=read
 ----------------------------------------------------------------------

 si13-c
 ------
 Redundant internal coordinates taken from checkpoint file:
 S9L-ne-d-01.chk
 Charge =  1 Multiplicity = 2

 SCF Done:  E(UB+HF-LYP) =  -3763.38792229     A.U. after   18 cycles
 SCF Done:  E(UB+HF-LYP) =  -3763.38794842     A.U. after   17 cycles
    -- Stationary point found.
 Normal termination of Gaussian 03 at Sun Jan  8 13:15:56 2012.

                         Standard orientation:
 ---------------------------------------------------------------------
 Center     Atomic     Atomic              Coordinates (Angstroms)
 Number     Number      Type              X           Y           Z
 ---------------------------------------------------------------------
    1         14             0        0.000000   -1.643579   -1.503642
    2         14             0        0.000000   -3.174131    0.252589
    3         14             0        1.461643   -1.274198    0.756288
    4         14             0        1.723616    0.000000   -1.573562
    5         14             0        1.461643    1.274198    0.756288
    6         14             0        0.000000    3.174131    0.252589
    7         14             0       -1.461643    1.274198    0.756288
    8         14             0        0.000000    0.000000    2.381423
    9         14             0       -1.461643   -1.274198    0.756288
   10         14             0       -1.723616    0.000000   -1.573562
   11         14             0        0.000000    1.643579   -1.503642
   12         14             0        3.420492    0.000000    0.121327
   13         14             0       -3.420492    0.000000    0.121327
 ---------------------------------------------------------------------

 SCF Done:  E(UB+HF-LYP) =  -3763.38794842     A.U. after    2 cycles

 The electronic state is 2-A.
 Alpha  occ. eigenvalues --  -66.27423 -66.27423 -66.27423 -66.27423 -66.25863
 Alpha  occ. eigenvalues --  -66.25863 -66.25756 -66.25756 -66.25685 -66.25685
 Alpha  occ. eigenvalues --  -66.25466 -66.25466 -66.25309  -5.44374  -5.44372
 Alpha  occ. eigenvalues --   -5.44370  -5.44367  -5.42871  -5.42870  -5.42780
 Alpha  occ. eigenvalues --   -5.42780  -5.42708  -5.42707  -5.42280  -5.42279
 Alpha  occ. eigenvalues --   -5.42192  -3.80312  -3.80311  -3.80304  -3.80303
 Alpha  occ. eigenvalues --   -3.80173  -3.80173  -3.80165  -3.80164  -3.80000
 Alpha  occ. eigenvalues --   -3.79998  -3.79990  -3.79988  -3.78837  -3.78837
 Alpha  occ. eigenvalues --   -3.78762  -3.78761  -3.78649  -3.78644  -3.78556
 Alpha  occ. eigenvalues --   -3.78556  -3.78548  -3.78537  -3.78458  -3.78458
 Alpha  occ. eigenvalues --   -3.78455  -3.78444  -3.78365  -3.78361  -3.78326
 Alpha  occ. eigenvalues --   -3.78326  -3.78165  -3.78165  -3.78003  -3.78003
 Alpha  occ. eigenvalues --   -3.77983  -3.77969  -3.77969  -3.77961  -3.77866
 Alpha  occ. eigenvalues --   -0.82455  -0.75965  -0.74292  -0.70880  -0.68092
 Alpha  occ. eigenvalues --   -0.62210  -0.59534  -0.58558  -0.57817  -0.55137
 Alpha  occ. eigenvalues --   -0.52674  -0.51008  -0.47149  -0.44404  -0.44047
 Alpha  occ. eigenvalues --   -0.43130  -0.42056  -0.41594  -0.41007  -0.39166
 Alpha  occ. eigenvalues --   -0.37766  -0.37272  -0.36988  -0.36571  -0.35234
 Alpha  occ. eigenvalues --   -0.32824
 Alpha virt. eigenvalues --   -0.25798  -0.25017  -0.24734  -0.21793  -0.19563
 Alpha virt. eigenvalues --   -0.19543  -0.18972  -0.18968  -0.18400  -0.16969
 Alpha virt. eigenvalues --   -0.16496  -0.16374  -0.15445  -0.14881  -0.11936

  Beta  occ. eigenvalues --  -66.27384 -66.27384 -66.27384 -66.27384 -66.25869
  Beta  occ. eigenvalues --  -66.25869 -66.25759 -66.25759 -66.25634 -66.25634
  Beta  occ. eigenvalues --  -66.25357 -66.25357 -66.25297  -5.44336  -5.44334
  Beta  occ. eigenvalues --   -5.44332  -5.44329  -5.42874  -5.42873  -5.42723
  Beta  occ. eigenvalues --   -5.42723  -5.42715  -5.42714  -5.42179  -5.42164
  Beta  occ. eigenvalues --   -5.42163  -3.80227  -3.80226  -3.80221  -3.80221
  Beta  occ. eigenvalues --   -3.80139  -3.80139  -3.80124  -3.80123  -3.79937
  Beta  occ. eigenvalues --   -3.79934  -3.79932  -3.79928  -3.78855  -3.78855
  Beta  occ. eigenvalues --   -3.78640  -3.78637  -3.78636  -3.78628  -3.78569
  Beta  occ. eigenvalues --   -3.78569  -3.78515  -3.78503  -3.78470  -3.78470
  Beta  occ. eigenvalues --   -3.78457  -3.78446  -3.78332  -3.78330  -3.78316
  Beta  occ. eigenvalues --   -3.78311  -3.77955  -3.77939  -3.77939  -3.77919
  Beta  occ. eigenvalues --   -3.77912  -3.77912  -3.77879  -3.77823  -3.77823
  Beta  occ. eigenvalues --   -0.82164  -0.75554  -0.74209  -0.70679  -0.67864
  Beta  occ. eigenvalues --   -0.61952  -0.59107  -0.58259  -0.57776  -0.54294
  Beta  occ. eigenvalues --   -0.52535  -0.50527  -0.46883  -0.44085  -0.43752
  Beta  occ. eigenvalues --   -0.42792  -0.41815  -0.40319  -0.40219  -0.39155
  Beta  occ. eigenvalues --   -0.37069  -0.36984  -0.36742  -0.36331  -0.35167
  Beta virt. eigenvalues --   -0.28016  -0.25730  -0.24642  -0.24626  -0.21432
  Beta virt. eigenvalues --   -0.19282  -0.18970  -0.18668  -0.18628  -0.18117
  Beta virt. eigenvalues --   -0.16823  -0.16395  -0.16183  -0.15345  -0.14500

 Mulliken atomic charges:
              1
     1  Si   0.307633
     2  Si  -0.073501
     3  Si   0.283667
     4  Si  -0.244851
     5  Si   0.283667
     6  Si  -0.073501
     7  Si   0.283667
     8  Si  -0.931011
     9  Si   0.283667
    10  Si  -0.244851
    11  Si   0.307633
    12  Si   0.408891
    13  Si   0.408891
 Sum of Mulliken charges=   1.00000

 Dipole moment (field-independent basis, Debye):
    X=     0.0000    Y=     0.0000    Z=    -1.0293  Tot=     1.0293
 Quadrupole moment (field-independent basis, Debye-Ang):
   XX=  -141.1003   YY=  -141.4212   ZZ=  -153.0500
   XY=     0.0000   XZ=     0.0000   YZ=     0.0000

  Exact polarizability: 430.686   0.000 391.611   0.000   0.000 302.259
 Approx polarizability:1490.115   0.0001405.594   0.000   0.0001077.482

                     1                      2                      3
                     A                      A                      A
 Frequencies --   108.1872               124.2205               146.5780
 Red. masses --    27.9769                27.9769                27.9769
 Frc consts  --     0.1929                 0.2544                 0.3542
 IR Inten    --     0.0835                 0.0000                 0.0000

                     4                      5                      6
                     A                      A                      A
 Frequencies --   163.7023               165.7586               170.9413
 Red. masses --    27.9769                27.9769                27.9769
 Frc consts  --     0.4417                 0.4529                 0.4817
 IR Inten    --     0.1156                 0.0000                 0.0970

                     7                      8                      9
                     A                      A                      A
 Frequencies --   179.3812               179.6452               184.4196
 Red. masses --    27.9769                27.9769                27.9769
 Frc consts  --     0.5304                 0.5320                 0.5606
 IR Inten    --     0.0017                 0.0000                 0.0615

                    10                     11                     12
                     A                      A                      A
 Frequencies --   190.3022               204.4052               208.3807
 Red. masses --    27.9769                27.9769                27.9769
 Frc consts  --     0.5969                 0.6887                 0.7158
 IR Inten    --     0.4236                 0.0242                 1.2057

                    13                     14                     15
                     A                      A                      A
 Frequencies --   209.8784               222.7624               225.3117
 Red. masses --    27.9769                27.9769                27.9769
 Frc consts  --     0.7261                 0.8180                 0.8368
 IR Inten    --     0.7812                 1.1444                 1.5266

                    16                     17                     18
                     A                      A                      A
 Frequencies --   229.3206               247.7956               249.1560
 Red. masses --    27.9769                27.9769                27.9769
 Frc consts  --     0.8668                 1.0121                 1.0233
 IR Inten    --     0.5722                 0.0000                 0.0180

                    19                     20                     21
                     A                      A                      A
 Frequencies --   278.7801               285.0308               294.5842
 Red. masses --    27.9769                27.9769                27.9769
 Frc consts  --     1.2811                 1.3392                 1.4304
 IR Inten    --     0.2076                 3.7639                 0.8418

                    22                     23                     24
                     A                      A                      A
 Frequencies --   308.4059               312.6042               379.1612
 Red. masses --    27.9769                27.9769                27.9769
 Frc consts  --     1.5678                 1.6108                 2.3697
 IR Inten    --     0.3207                 1.5947                 5.6659

                    25                     26                     27
                     A                      A                      A
 Frequencies --   380.5148               384.1146               390.3966
 Red. masses --    27.9769                27.9769                27.9769
 Frc consts  --     2.3867                 2.4320                 2.5122
 IR Inten    --     0.0000                 1.9427                 0.0000

                    28                     29                     30
                     A                      A                      A
 Frequencies --   396.8922               400.5548               439.0638
 Red. masses --    27.9769                27.9769                27.9769
 Frc consts  --     2.5965                 2.6447                 3.1776
 IR Inten    --     6.3618                 1.0158                 3.1226

                    31                     32                     33
                     A                      A                      A
 Frequencies --   442.9691               449.8303               478.1996
 Red. masses --    27.9769                27.9769                27.9769
 Frc consts  --     3.2344                 3.3354                 3.7694
 IR Inten    --     0.1710                 3.4613                10.9195

 - Thermochemistry -
 -------------------
 Temperature   298.150 Kelvin.  Pressure   1.00000 Atm.
 Atom  1 has atomic number 14 and mass  27.97693

 Molecular mass:   363.70007 amu.
 Principal axes and moments of inertia in atomic units:
                           1         2         3
     EIGENVALUES --  4959.145745542.565736986.93357
           X            1.00000   0.00000   0.00000
           Y            0.00000   1.00000   0.00000
           Z            0.00000   0.00000   1.00000
 This molecule is an asymmetric top.
 Rotational symmetry number  1.
 Warning -- assumption of classical behavior for rotation
           may cause significant error
 Rotational temperatures (Kelvin)      0.01747     0.01563     0.01240
 Rotational constants (GHZ):           0.36392     0.32561     0.25830
 Zero-point vibrational energy      54018.9 (Joules/Mol)
                                   12.91082 (Kcal/Mol)
 Warning -- explicit consideration of  33 degrees of freedom as
           vibrations may cause significant error
 Vibrational temperatures:    155.66   178.73   210.89   235.53   238.49
          (Kelvin)            245.95   258.09   258.47   265.34   273.80
                              294.09   299.81   301.97   320.50   324.17
                              329.94   356.52   358.48   401.10   410.10
                              423.84   443.73   449.77   545.53   547.48
                              552.65   561.69   571.04   576.31   631.71
                              637.33   647.20   688.02

 Zero-point correction=                           0.020575 (Hartree/Particle)
 Thermal correction to Energy=                    0.038946
 Thermal correction to Enthalpy=                  0.039890
 Thermal correction to Gibbs Free Energy=        -0.024739
 Sum of electronic and zero-point Energies=          -3763.367374
 Sum of electronic and thermal Energies=             -3763.349003
 Sum of electronic and thermal Enthalpies=           -3763.348058
 Sum of electronic and thermal Free Energies=        -3763.412687

                     E (Thermal)             CV                S
                      KCal/Mol        Cal/Mol-Kelvin    Cal/Mol-Kelvin
 Total                   24.439             62.055            136.023
 Electronic               0.000              0.000              1.377
 Translational            0.889              2.981             43.567
 Rotational               0.889              2.981             33.618
 Vibrational             22.661             56.093             57.461
 Vibration  1             0.606              1.943              3.301
 Vibration  2             0.610              1.929              3.034
 Vibration  3             0.617              1.906              2.716
 Vibration  4             0.623              1.887              2.507
 Vibration  5             0.624              1.885              2.483
 Vibration  6             0.626              1.878              2.425
 Vibration  7             0.629              1.868              2.335
 Vibration  8             0.629              1.867              2.332
 Vibration  9             0.631              1.861              2.283
 Vibration 10             0.634              1.853              2.225
 Vibration 11             0.640              1.834              2.093
 Vibration 12             0.642              1.828              2.058
 Vibration 13             0.642              1.826              2.045
 Vibration 14             0.648              1.806              1.937
 Vibration 15             0.650              1.802              1.916
 Vibration 16             0.652              1.796              1.884
 Vibration 17             0.661              1.766              1.746
 Vibration 18             0.662              1.764              1.737
 Vibration 19             0.679              1.713              1.541
 Vibration 20             0.683              1.701              1.503
 Vibration 21             0.689              1.684              1.447
 Vibration 22             0.698              1.658              1.371
 Vibration 23             0.701              1.650              1.349
 Vibration 24             0.749              1.515              1.043
 Vibration 25             0.750              1.512              1.037
 Vibration 26             0.753              1.504              1.023
 Vibration 27             0.758              1.491              0.999
 Vibration 28             0.763              1.477              0.974
 Vibration 29             0.766              1.469              0.961
 Vibration 30             0.799              1.385              0.830
 Vibration 31             0.803              1.376              0.817
 Vibration 32             0.809              1.361              0.796
 Vibration 33             0.835              1.298              0.715

 Optimization completed.
    -- Stationary point found.
 Normal termination of Gaussian 03 at Sun Jan  8 14:22:53 2012.
