 Gaussian 09, Revision A.02,

 ---------------------------------------------------------
 #n b3lyp/6-31g(d) test opt=(calcall,noeigentest) pop=none
 ---------------------------------------------------------

 -----------------------
 Si-13 (-) anion doublet
 -----------------------
 Symbolic Z-matrix:
 Charge = -1 Multiplicity = 2

 SCF Done:  E(UB3LYP) =  -3763.41954923     A.U. after   20 cycles
 SCF Done:  E(UB3LYP) =  -3763.42105008     A.U. after   16 cycles
 SCF Done:  E(UB3LYP) =  -3763.42636425     A.U. after   27 cycles
 SCF Done:  E(UB3LYP) =  -3763.42887029     A.U. after   26 cycles
 SCF Done:  E(UB3LYP) =  -3763.43288940     A.U. after   22 cycles
 SCF Done:  E(UB3LYP) =  -3763.43494819     A.U. after   25 cycles
 SCF Done:  E(UB3LYP) =  -3763.43503670     A.U. after   26 cycles
 SCF Done:  E(UB3LYP) =  -3763.43544422     A.U. after   25 cycles
 SCF Done:  E(UB3LYP) =  -3763.43603556     A.U. after   28 cycles
 SCF Done:  E(UB3LYP) =  -3763.43870418     A.U. after   26 cycles
 SCF Done:  E(UB3LYP) =  -3763.44752017     A.U. after   24 cycles
 SCF Done:  E(UB3LYP) =  -3763.44799804     A.U. after   25 cycles
 SCF Done:  E(UB3LYP) =  -3763.44810996     A.U. after   18 cycles
 SCF Done:  E(UB3LYP) =  -3763.44811734     A.U. after   14 cycles
 SCF Done:  E(UB3LYP) =  -3763.44811837     A.U. after   24 cycles
 SCF Done:  E(UB3LYP) =  -3763.44811838     A.U. after   24 cycles
 Optimization completed.
    -- Stationary point found.
 Normal termination of Gaussian 09 at Thu Feb 23 05:02:48 2012.
 Gaussian 09:  AM64L-G09RevA.02 11-Jun-2009

 ----------------------------------------------------------------------
 #n b3lyp/6-311+g(d) test opt=(readfc,noeigentest) # geom=allcheck gues
 s=read pop=none freq
 ----------------------------------------------------------------------

 Si-13 (-) anion doublet
 -----------------------
 Redundant internal coordinates taken from checkpoint file:
 si13-anion.chk
 Charge = -1 Multiplicity = 2

 SCF Done:  E(UB3LYP) =  -3763.73093892     A.U. after   22 cycles
 SCF Done:  E(UB3LYP) =  -3763.73099649     A.U. after   18 cycles
 SCF Done:  E(UB3LYP) =  -3763.73099676     A.U. after   17 cycles
 Optimization completed.
    -- Stationary point found.

 1\1\GINC-NODE26\FOpt\UB3LYP\6-311+G(d)\Si13(1-,2)\MINH\23-Feb-2012\0\\
 #n b3lyp/6-311+g(d) test opt=(readfc,noeigentest) # geom=allcheck gues
 s=read pop=none freq\\Si-13 (-) anion doublet\\-1,2\Si,-0.0748267837,1
 .9882382203,-2.6481363592\Si,0.0805657786,-1.5178289801,-0.2875663129\
 Si,1.2556831694,0.000873458,-2.4097548762\Si,-1.3473934693,0.001503321
 6,-2.1462986192\Si,0.0814582803,1.518082791,-0.2860038161\Si,2.0232859
 956,-0.0006008293,0.0175063431\Si,-0.0759949813,-1.985462111,-2.650181
 1512\Si,-1.2108113473,1.9323494023,1.6571707192\Si,1.3545939428,1.4241

 Normal termination of Gaussian 09 at Thu Feb 23 05:59:06 2012.

 ----------------------------------------------------------------------
 #N Geom=AllCheck Guess=TCheck SCRF=Check Test GenChk UB3LYP/6-311+G(d)
  Freq
 ----------------------------------------------------------------------

 Si-13 (-) anion doublet
 -----------------------
 Redundant internal coordinates taken from checkpoint file:
 si13-anion.chk
 Charge = -1 Multiplicity = 2

                         Standard orientation:
 ---------------------------------------------------------------------
 Center     Atomic      Atomic             Coordinates (Angstroms)
 Number     Number       Type             X           Y           Z
 ---------------------------------------------------------------------
      1         14           0       -2.654010   -1.986850   -0.087924
      2         14           0       -0.292400    1.517956    0.079634
      3         14           0       -2.420884    0.000000    1.244284
      4         14           0       -2.145159    0.000000   -1.357522
      5         14           0       -0.292400   -1.517957    0.079634
      6         14           0        0.002731    0.000000    2.023321
      7         14           0       -2.654010    1.986851   -0.087924
      8         14           0        1.656633   -1.932843   -1.203583
      9         14           0        1.908524   -1.425580    1.363188
     10         14           0        3.045765    0.000000   -0.333140
     11         14           0        0.280057    0.000000   -1.879573
     12         14           0        1.656632    1.932843   -1.203583
     13         14           0        1.908523    1.425581    1.363188
 ---------------------------------------------------------------------

 SCF Done:  E(UB3LYP) =  -3763.73099676     A.U. after    1 cycles

 Isotropic polarizability for W=    0.000000      442.62 Bohr**3.
 End of Minotr Frequency-dependent properties file   721 does not exist.

                     1                      2                      3
                     A                      A                      A
 Frequencies --    71.4215                92.6152               107.9107
 Red. masses --    27.9769                27.9769                27.9769
 Frc consts  --     0.0841                 0.1414                 0.1919
 IR Inten    --     0.0340                 0.0017                 0.0155

                     4                      5                      6
                     A                      A                      A
 Frequencies --   132.4139               140.2010               156.1352
 Red. masses --    27.9769                27.9769                27.9769
 Frc consts  --     0.2890                 0.3240                 0.4018
 IR Inten    --     3.1842                 1.2476                 0.1652

                     7                      8                      9
                     A                      A                      A
 Frequencies --   164.3402               172.0792               173.7865
 Red. masses --    27.9769                27.9769                27.9769
 Frc consts  --     0.4452                 0.4881                 0.4978
 IR Inten    --     0.4343                 0.0044                 0.7530

                    10                     11                     12
                     A                      A                      A
 Frequencies --   201.5375               205.6491               221.5661
 Red. masses --    27.9769                27.9769                27.9769
 Frc consts  --     0.6695                 0.6971                 0.8092
 IR Inten    --     0.0500                 0.3757                 2.3745

                    13                     14                     15
                     A                      A                      A
 Frequencies --   228.6553               232.9088               247.6034
 Red. masses --    27.9769                27.9769                27.9769
 Frc consts  --     0.8618                 0.8942                 1.0106
 IR Inten    --     1.7411                 0.0024                 0.8622

                    16                     17                     18
                     A                      A                      A
 Frequencies --   259.1515               262.8720               277.1775
 Red. masses --    27.9769                27.9769                27.9769
 Frc consts  --     1.1070                 1.1390                 1.2664
 IR Inten    --     0.0135                 0.3411                 4.8648

                    19                     20                     21
                     A                      A                      A
 Frequencies --   280.3853               290.7142               310.6765
 Red. masses --    27.9769                27.9769                27.9769
 Frc consts  --     1.2959                 1.3931                 1.5910
 IR Inten    --     0.1517                 1.2611                 1.7202

                    22                     23                     24
                     A                      A                      A
 Frequencies --   315.1807               320.2582               323.5114
 Red. masses --    27.9769                27.9769                27.9769
 Frc consts  --     1.6375                 1.6906                 1.7252
 IR Inten    --     0.0138                 0.7193                 0.1449

                    25                     26                     27
                     A                      A                      A
 Frequencies --   333.4680               338.1620               345.6153
 Red. masses --    27.9769                27.9769                27.9769
 Frc consts  --     1.8330                 1.8849                 1.9690
 IR Inten    --     2.2317                 0.1636                 0.8763

                    28                     29                     30
                     A                      A                      A
 Frequencies --   366.6376               378.1023               402.9243
 Red. masses --    27.9769                27.9769                27.9769
 Frc consts  --     2.2158                 2.3565                 2.6761
 IR Inten    --     0.3651                 0.0012                 0.5072

                    31                     32                     33
                     A                      A                      A
 Frequencies --   415.2068               449.9009               460.5530
 Red. masses --    27.9769                27.9769                27.9769
 Frc consts  --     2.8417                 3.3364                 3.4963
 IR Inten    --     1.1547                 0.8172                 0.1406

 - Thermochemistry -
 -------------------
 Temperature   298.150 Kelvin.  Pressure   1.00000 Atm.
 Atom     1 has atomic number 14 and mass  27.97693

 Molecular mass:   363.70007 amu.
 Principal axes and moments of inertia in atomic units:
                           1         2         3
     Eigenvalues --  4177.179676456.065447082.40612
           X            1.00000   0.00000   0.00000
           Y            0.00000   1.00000   0.00000
           Z            0.00000   0.00000   1.00000
 This molecule is an asymmetric top.
 Rotational symmetry number  1.
 Warning -- assumption of classical behavior for rotation
           may cause significant error
 Rotational temperatures (Kelvin)      0.02073     0.01342     0.01223
 Rotational constants (GHZ):           0.43205     0.27954     0.25482
 Zero-point vibrational energy      51913.9 (Joules/Mol)
                                   12.40771 (Kcal/Mol)
 Warning -- explicit consideration of  33 degrees of freedom as
           vibrations may cause significant error
 Vibrational temperatures:    102.76   133.25   155.26   190.51   201.72
          (Kelvin)            224.64   236.45   247.58   250.04   289.97
                              295.88   318.78   328.98   335.10   356.25
                              372.86   378.21   398.80   403.41   418.27
                              446.99   453.47   460.78   465.46   479.79
                              486.54   497.26   527.51   544.00   579.72
                              597.39   647.31   662.63

 Zero-point correction=                           0.019773 (Hartree/Particle)
 Thermal correction to Energy=                    0.038596
 Thermal correction to Enthalpy=                  0.039540
 Thermal correction to Gibbs Free Energy=        -0.026600
 Sum of electronic and zero-point Energies=          -3763.711224
 Sum of electronic and thermal Energies=             -3763.692401
 Sum of electronic and thermal Enthalpies=           -3763.691457
 Sum of electronic and thermal Free Energies=        -3763.757597

                     E (Thermal)             CV                S
                      KCal/Mol        Cal/Mol-Kelvin    Cal/Mol-Kelvin
 Total                   24.219             62.642            139.204
 Electronic               0.000              0.000              1.377
 Translational            0.889              2.981             43.567
 Rotational               0.889              2.981             33.612
 Vibrational             22.442             56.681             60.647
 Vibration     1          0.598              1.968              4.114
 Vibration     2          0.602              1.954              3.604
 Vibration     3          0.606              1.943              3.306
 Vibration     4          0.613              1.921              2.911
 Vibration     5          0.615              1.913              2.801
 Vibration     6          0.620              1.896              2.596
 Vibration     7          0.623              1.886              2.499
 Vibration     8          0.626              1.877              2.413
 Vibration     9          0.627              1.875              2.394
 Vibration    10          0.638              1.838              2.119
 Vibration    11          0.640              1.832              2.082
 Vibration    12          0.648              1.808              1.946
 Vibration    13          0.651              1.797              1.889
 Vibration    14          0.654              1.791              1.856
 Vibration    15          0.661              1.767              1.748
 Vibration    16          0.668              1.747              1.667
 Vibration    17          0.670              1.741              1.643
 Vibration    18          0.678              1.716              1.551
 Vibration    19          0.680              1.710              1.531
 Vibration    20          0.687              1.691              1.470
 Vibration    21          0.700              1.653              1.359
 Vibration    22          0.703              1.645              1.335
 Vibration    23          0.706              1.635              1.309
 Vibration    24          0.708              1.628              1.292
 Vibration    25          0.715              1.609              1.243
 Vibration    26          0.718              1.599              1.221
 Vibration    27          0.724              1.584              1.186
 Vibration    28          0.740              1.541              1.094
 Vibration    29          0.748              1.517              1.047
 Vibration    30          0.768              1.464              0.952
 Vibration    31          0.779              1.437              0.908
 Vibration    32          0.809              1.361              0.796
 Vibration    33          0.818              1.338              0.764

 Optimization completed.
    -- Stationary point found.

 1\1\GINC-NODE26\Freq\UB3LYP\6-311+G(d)\Si13(1-,2)\MINH\23-Feb-2012\0\\
 #N Geom=AllCheck Guess=TCheck SCRF=Check Test GenChk UB3LYP/6-311+G(d)
  Freq\\Si-13 (-) anion doublet\\-1,2\Si,-0.0748267837,1.9882382203,-2.
 6481363592\Si,0.0805657786,-1.5178289801,-0.2875663129\Si,1.2556831694
 ,0.000873458,-2.4097548762\Si,-1.3473934693,0.0015033216,-2.1462986192
 \Si,0.0814582803,1.518082791,-0.2860038161\Si,2.0232859956,-0.00060082
 93,0.0175063431\Si,-0.0759949813,-1.985462111,-2.6501811512\Si,-1.2108
 113473,1.9323494023,1.6571707192\Si,1.3545939428,1.4241963071,1.920898

Normal termination of Gaussian 09 at Tue Mar  6 15:20:21 2012.
