 Gaussian 03, Revision E.01,

 ----------------------------------------------------------------------
 # b3lyp/LANL2DZ opt=(calcall,noeigentest,maxcycle=500) scfcyc=500 scf=
 xqc
 ----------------------------------------------------------------------

 -----
 si4-n
 -----
 Symbolic Z-matrix:
 Charge = -1 Multiplicity = 2

 SCF Done:  E(UB+HF-LYP) =  -15.4724756505     A.U. after   18 cycles
 SCF Done:  E(UB+HF-LYP) =  -15.4775153165     A.U. after   18 cycles
 SCF Done:  E(UB+HF-LYP) =  -15.4778683152     A.U. after   17 cycles
 SCF Done:  E(UB+HF-LYP) =  -15.4778720125     A.U. after   12 cycles
 Optimization completed.
    -- Stationary point found.
 Normal termination of Gaussian 03 at Wed Apr  6 16:49:41 2011.

 ----------------------------------------------------------------------
 # b3lyp/6-311G(d) opt=(readfc,noeigentest,maxcycle=500) freq scfcyc=50
 0 optcyc=500 geom=allcheck guess=read scf=xqc
 ----------------------------------------------------------------------

 si4-n
 -----
 Redundant internal coordinates taken from checkpoint file:
 S9L-ne-d-01.chk
 Charge = -1 Multiplicity = 2

 SCF Done:  E(UB+HF-LYP) =  -1158.04411258     A.U. after   21 cycles
 SCF Done:  E(UB+HF-LYP) =  -1158.04801496     A.U. after   16 cycles
 SCF Done:  E(UB+HF-LYP) =  -1158.04809782     A.U. after   13 cycles
 Optimization completed.
 Normal termination of Gaussian 03 at Wed Apr  6 16:51:22 2011.

 -------------------------------------------------------------------
 #N Geom=AllCheck Guess=Read SCRF=Check GenChk UB3LYP/6-311G(d) Freq
 -------------------------------------------------------------------

 si4-n
 -----
 Redundant internal coordinates taken from checkpoint file:
 S9L-ne-d-01.chk
 Charge = -1 Multiplicity = 2

 SCF Done:  E(UB+HF-LYP) =  -1158.04809782     A.U. after    1 cycles
 Normal termination of Gaussian 03 at Wed Apr  6 16:52:35 2011.
 Gaussian 03:  AM64L-G03RevE.01 11-Sep-2007

 ----------------------------------------------------------------------
 # b3lyp/6-311+G(d) opt=(readfc,noeigentest,maxcycle=500) freq scfcyc=5
 00 optcyc=500 scf=xqc geom=allcheck guess=read
 ----------------------------------------------------------------------

 si4-n
 -----
 Redundant internal coordinates taken from checkpoint file:
 S9L-ne-d-01.chk
 Charge = -1 Multiplicity = 2

 SCF Done:  E(UB+HF-LYP) =  -1158.05370088     A.U. after   11 cycles
 SCF Done:  E(UB+HF-LYP) =  -1158.05370592     A.U. after   16 cycles
    -- Stationary point found.
 Normal termination of Gaussian 03 at Wed Apr  6 16:53:51 2011.

 --------------------------------------------------------------------
 #N Geom=AllCheck Guess=Read SCRF=Check GenChk UB3LYP/6-311+G(d) Freq
 --------------------------------------------------------------------

 si4-n
 -----
 Redundant internal coordinates taken from checkpoint file:
 S9L-ne-d-01.chk
 Charge = -1 Multiplicity = 2

                         Standard orientation:
 ---------------------------------------------------------------------
 Center     Atomic     Atomic              Coordinates (Angstroms)
 Number     Number      Type              X           Y           Z
 ---------------------------------------------------------------------
    1         14             0        1.022861   -0.604448    0.000000
    2         14             0       -1.022861   -1.730909    0.000000
    3         14             0       -1.022861    0.604448    0.000000
    4         14             0        1.022861    1.730909    0.000000
 ---------------------------------------------------------------------

 SCF Done:  E(UB+HF-LYP) =  -1158.05370592     A.U. after    1 cycles

 The electronic state is 2-A".
 Alpha  occ. eigenvalues --  -65.93618 -65.93618 -65.93355 -65.93355  -5.10796
 Alpha  occ. eigenvalues --   -5.10791  -5.10331  -5.10328  -3.46791  -3.46787
 Alpha  occ. eigenvalues --   -3.46531  -3.46477  -3.46346  -3.46346  -3.46346
 Alpha  occ. eigenvalues --   -3.46341  -3.46145  -3.46141  -3.45880  -3.45877
 Alpha  occ. eigenvalues --   -0.43821  -0.31592  -0.23903  -0.17056  -0.10101
 Alpha  occ. eigenvalues --   -0.08308  -0.07183  -0.05916  -0.01529
 Alpha virt. eigenvalues --    0.07153   0.07953   0.10423   0.11358   0.11860
 Alpha virt. eigenvalues --    0.12624   0.14556   0.14709   0.15057   0.15987
 Alpha virt. eigenvalues --    0.16522   0.17236   0.17951   0.19001   0.19575

  Beta  occ. eigenvalues --  -65.93646 -65.93646 -65.93184 -65.93184  -5.10825
  Beta  occ. eigenvalues --   -5.10820  -5.10160  -5.10157  -3.46864  -3.46860
  Beta  occ. eigenvalues --   -3.46552  -3.46499  -3.46374  -3.46369  -3.46044
  Beta  occ. eigenvalues --   -3.46042  -3.45786  -3.45783  -3.45764  -3.45764
  Beta  occ. eigenvalues --   -0.43412  -0.30094  -0.23970  -0.15813  -0.08697
  Beta  occ. eigenvalues --   -0.07926  -0.07269  -0.05351
  Beta virt. eigenvalues --    0.05087   0.06884   0.08351   0.11333   0.11918
  Beta virt. eigenvalues --    0.12224   0.12687   0.14587   0.15056   0.15297
  Beta virt. eigenvalues --    0.16103   0.17078   0.17242   0.17848   0.19021

 Mulliken atomic charges:
              1
     1  Si  -0.209286
     2  Si  -0.290714
     3  Si  -0.209286
     4  Si  -0.290714
 Sum of Mulliken charges=  -1.00000

 Dipole moment (field-independent basis, Debye):
    X=     0.0000    Y=     0.0000    Z=     0.0000  Tot=     0.0000
 Quadrupole moment (field-independent basis, Debye-Ang):
   XX=   -71.8681   YY=   -80.2573   ZZ=   -61.1782
   XY=    -7.6186   XZ=     0.0000   YZ=     0.0000

  Exact polarizability: 194.557  42.951 241.855   0.000   0.000 115.685
 Approx polarizability: 448.454  91.341 549.051   0.000   0.000 178.381

                     1                      2                      3
                    A"                     A'                     A'
 Frequencies --   146.7039               230.4503               317.0127
 Red. masses --    27.9769                27.9769                27.9769
 Frc consts  --     0.3548                 0.8754                 1.6565
 IR Inten    --     1.6466                 0.4855                 0.0000

                     4                      5                      6
                    A'                     A'                     A'
 Frequencies --   351.6669               442.0520               462.9834
 Red. masses --    27.9769                27.9769                27.9769
 Frc consts  --     2.0385                 3.2210                 3.5333
 IR Inten    --     0.0000                 2.1565                 0.0000

 - Thermochemistry -
 -------------------
 Temperature   298.150 Kelvin.  Pressure   1.00000 Atm.
 Atom  1 has atomic number 14 and mass  27.97693

 Molecular mass:   111.90771 amu.
 Principal axes and moments of inertia in atomic units:
                           1         2         3
     EIGENVALUES --   282.05895 807.709641089.76859
           X            0.50875   0.86092   0.00000
           Y            0.86092  -0.50875   0.00000
           Z            0.00000   0.00000   1.00000
 This molecule is an asymmetric top.
 Rotational symmetry number  1.
 Rotational temperatures (Kelvin)      0.30708     0.10723     0.07948
 Rotational constants (GHZ):           6.39845     2.23439     1.65608
 Zero-point vibrational energy      11668.8 (Joules/Mol)
                                    2.78891 (Kcal/Mol)
 Warning -- explicit consideration of   6 degrees of freedom as
           vibrations may cause significant error
 Vibrational temperatures:    211.07   331.57   456.11   505.97   636.01
          (Kelvin)            666.13

 Zero-point correction=                           0.004444 (Hartree/Particle)
 Thermal correction to Energy=                    0.009723
 Thermal correction to Enthalpy=                  0.010667
 Thermal correction to Gibbs Free Energy=        -0.025962
 Sum of electronic and zero-point Energies=          -1158.049262
 Sum of electronic and thermal Energies=             -1158.043983
 Sum of electronic and thermal Enthalpies=           -1158.043039
 Sum of electronic and thermal Free Energies=        -1158.079668

                     E (Thermal)             CV                S
                      KCal/Mol        Cal/Mol-Kelvin    Cal/Mol-Kelvin
 Total                    6.101             15.586             77.092
 Electronic               0.000              0.000              1.377
 Translational            0.889              2.981             40.053
 Rotational               0.889              2.981             27.009
 Vibrational              4.324              9.624              8.652
 Vibration  1             0.617              1.906              2.715
 Vibration  2             0.652              1.794              1.875
 Vibration  3             0.704              1.641              1.325
 Vibration  4             0.728              1.572              1.159
 Vibration  5             0.802              1.378              0.820
 Vibration  6             0.821              1.332              0.757

 Optimization completed.
    -- Stationary point found.
 Normal termination of Gaussian 03 at Wed Apr  6 16:55:17 2011.
