 Gaussian 03, Revision E.01,

 ----------------------------------------------------------------------
 # b3lyp/LANL2DZ opt=(calcall,noeigentest,maxcycle=500) scfcyc=500 scf=
 xqc
 ----------------------------------------------------------------------

 -----
 si4-n
 -----
 Symbolic Z-matrix:
 Charge =  0 Multiplicity = 1

 SCF Done:  E(RB+HF-LYP) =  -15.3894776704     A.U. after   13 cycles
 SCF Done:  E(RB+HF-LYP) =  -15.3956712571     A.U. after   13 cycles
 SCF Done:  E(RB+HF-LYP) =  -15.3966001172     A.U. after   14 cycles
 SCF Done:  E(RB+HF-LYP) =  -15.3966144071     A.U. after    9 cycles
 Optimization completed.
    -- Stationary point found.
 Normal termination of Gaussian 03 at Mon Apr  4 15:54:59 2011.

 ----------------------------------------------------------------------
 # b3lyp/6-311G(d) opt=(readfc,noeigentest,maxcycle=500) freq scfcyc=50
 0 optcyc=500 geom=allcheck guess=read scf=xqc
 ----------------------------------------------------------------------

 si4-n
 -----
 Redundant internal coordinates taken from checkpoint file:
 S9L-ne-d-01.chk
 Charge =  0 Multiplicity = 1

 SCF Done:  E(RB+HF-LYP) =  -1157.96955584     A.U. after   16 cycles
 SCF Done:  E(RB+HF-LYP) =  -1157.97345935     A.U. after   13 cycles
 SCF Done:  E(RB+HF-LYP) =  -1157.97358703     A.U. after   13 cycles
 Optimization completed.
 Normal termination of Gaussian 03 at Mon Apr  4 15:56:32 2011.

 -------------------------------------------------------------------
 #N Geom=AllCheck Guess=Read SCRF=Check GenChk RB3LYP/6-311G(d) Freq
 -------------------------------------------------------------------

 si4-n
 -----
 Redundant internal coordinates taken from checkpoint file:
 S9L-ne-d-01.chk
 Charge =  0 Multiplicity = 1

 SCF Done:  E(RB+HF-LYP) =  -1157.97358703     A.U. after    1 cycles
 Normal termination of Gaussian 03 at Mon Apr  4 15:57:28 2011.
 Gaussian 03:  AM64L-G03RevE.01 11-Sep-2007

 ----------------------------------------------------------------------
 # b3lyp/6-311+G(d) opt=(readfc,noeigentest,maxcycle=500) freq scfcyc=5
 00 optcyc=500 scf=xqc geom=allcheck guess=read
 ----------------------------------------------------------------------

 si4-n
 -----
 Redundant internal coordinates taken from checkpoint file:
 S9L-ne-d-01.chk
 Charge =  0 Multiplicity = 1

 SCF Done:  E(RB+HF-LYP) =  -1157.97640173     A.U. after   10 cycles
    -- Stationary point found.
 Normal termination of Gaussian 03 at Mon Apr  4 15:58:08 2011.

 --------------------------------------------------------------------
 #N Geom=AllCheck Guess=Read SCRF=Check GenChk RB3LYP/6-311+G(d) Freq
 --------------------------------------------------------------------

 si4-n
 -----
 Redundant internal coordinates taken from checkpoint file:
 S9L-ne-d-01.chk
 Charge =  0 Multiplicity = 1

                         Standard orientation:
 ---------------------------------------------------------------------
 Center     Atomic     Atomic              Coordinates (Angstroms)
 Number     Number      Type              X           Y           Z
 ---------------------------------------------------------------------
    1         14             0        0.000000    0.000000   -1.214243
    2         14             0        0.000000    1.986043   -0.000008
    3         14             0        0.000000    0.000000    1.214259
    4         14             0        0.000000   -1.986043   -0.000008
 ---------------------------------------------------------------------

 SCF Done:  E(RB+HF-LYP) =  -1157.97640173     A.U. after    1 cycles

 The electronic state is 1-A1.
 Alpha  occ. eigenvalues --  -66.13092 -66.13092 -66.10630 -66.10630  -5.29949
 Alpha  occ. eigenvalues --   -5.29945  -5.27852  -5.27849  -3.66021  -3.66021
 Alpha  occ. eigenvalues --   -3.65668  -3.65668  -3.65375  -3.65375  -3.63868
 Alpha  occ. eigenvalues --   -3.63865  -3.63560  -3.63520  -3.63393  -3.63390
 Alpha  occ. eigenvalues --   -0.61409  -0.49188  -0.41393  -0.34085  -0.26436
 Alpha  occ. eigenvalues --   -0.26007  -0.23635  -0.22894
 Alpha virt. eigenvalues --   -0.13986  -0.09334  -0.08750  -0.04457  -0.01296
 Alpha virt. eigenvalues --   -0.00774   0.00870   0.01211   0.02983   0.03124
 Alpha virt. eigenvalues --    0.03908   0.05216   0.05803   0.06450   0.06646

 Mulliken atomic charges:
              1
     1  Si  -0.119748
     2  Si   0.119746
     3  Si  -0.119744
     4  Si   0.119746
 Sum of Mulliken charges=   0.00000

 Dipole moment (field-independent basis, Debye):
    X=     0.0000    Y=     0.0000    Z=     0.0000  Tot=     0.0000
 Quadrupole moment (field-independent basis, Debye-Ang):
   XX=   -49.8004   YY=   -56.9663   ZZ=   -57.0218
   XY=     0.0000   XZ=     0.0000   YZ=     0.0000

  Exact polarizability:  81.498   0.000 188.648   0.000   0.000 138.043
 Approx polarizability: 139.349   0.000 483.318   0.000   0.000 354.600

                     1                      2                      3
                    B1                     A1                     A1
 Frequencies --   101.2125               231.1520               343.2268
 Red. masses --    27.9769                27.9769                27.9769
 Frc consts  --     0.1689                 0.8807                 1.9418
 IR Inten    --     2.9630                 1.2695                 0.0000

                     4                      5                      6
                    B2                     A1                     B2
 Frequencies --   421.7650               456.0240               489.9970
 Red. masses --    27.9769                27.9769                27.9769
 Frc consts  --     2.9322                 3.4279                 3.9576
 IR Inten    --     0.0000                 0.0000                77.9554

 - Thermochemistry -
 -------------------
 Temperature   298.150 Kelvin.  Pressure   1.00000 Atm.
 Atom  1 has atomic number 14 and mass  27.97693

 Molecular mass:   111.90771 amu.
 Principal axes and moments of inertia in atomic units:
                           1         2         3
     EIGENVALUES --   294.60804 788.142871082.75091
           X            0.00000   0.00000   1.00000
           Y            1.00000   0.00000   0.00000
           Z            0.00000   1.00000   0.00000
 This molecule is an asymmetric top.
 Rotational symmetry number  2.
 Rotational temperatures (Kelvin)      0.29400     0.10990     0.07999
 Rotational constants (GHZ):           6.12591     2.28987     1.66681
 Zero-point vibrational energy      12222.1 (Joules/Mol)
                                    2.92115 (Kcal/Mol)
 Warning -- explicit consideration of   6 degrees of freedom as
           vibrations may cause significant error
 Vibrational temperatures:    145.62   332.58   493.83   606.83   656.12
          (Kelvin)            705.00

 Zero-point correction=                           0.004655 (Hartree/Particle)
 Thermal correction to Energy=                    0.009881
 Thermal correction to Enthalpy=                  0.010826
 Thermal correction to Gibbs Free Energy=        -0.024592
 Sum of electronic and zero-point Energies=          -1157.971747
 Sum of electronic and thermal Energies=             -1157.966520
 Sum of electronic and thermal Enthalpies=           -1157.965576
 Sum of electronic and thermal Free Energies=        -1158.000994

                     E (Thermal)             CV                S
                      KCal/Mol        Cal/Mol-Kelvin    Cal/Mol-Kelvin
 Total                    6.201             15.335             74.543
 Electronic               0.000              0.000              0.000
 Translational            0.889              2.981             40.053
 Rotational               0.889              2.981             25.644
 Vibrational              4.423              9.373              8.845
 Vibration  1             0.604              1.948              3.431
 Vibration  2             0.653              1.793              1.870
 Vibration  3             0.722              1.589              1.197
 Vibration  4             0.784              1.423              0.886
 Vibration  5             0.814              1.348              0.778
 Vibration  6             0.846              1.272              0.684

 Optimization completed.
    -- Stationary point found.
 Normal termination of Gaussian 03 at Mon Apr  4 15:59:12 2011.
