 Gaussian 03, Revision E.01,

 --------------------------------------
 # hf/6-311G(d) freq scfcyc=500 scf=xqc
 --------------------------------------

 -----
 si3-c
 -----
 Symbolic Z-matrix:
 Charge =  1 Multiplicity = 2

 SCF Done:  E(UHF) =  -1155.33994448     A.U. after   21 cycles
 ******    1 imaginary frequencies (negative Signs) ******
    1 imaginary frequencies ignored.
 Normal termination of Gaussian 03 at Fri Jun 17 16:10:38 2011.
 Gaussian 03:  AM64L-G03RevE.01 11-Sep-2007

 ----------------------------------------------------------------------
 # b3lyp/6-311+G(d) opt=(readfc,noeigentest,maxcycle=500) freq scfcyc=5
 00 optcyc=500 scf=xqc geom=allcheck guess=read
 ----------------------------------------------------------------------

 -----
 No Z-matrix found on checkpoint file.
 Cartesian coordinates read from the checkpoint file:
 S9L-ne-d-01.chk
 Charge =  1 Multiplicity = 2

 SCF Done:  E(UB+HF-LYP) =  -1157.67725904     A.U. after   13 cycles
 SCF Done:  E(UB+HF-LYP) =  -1157.67596883     A.U. after   17 cycles
 SCF Done:  E(UB+HF-LYP) =  -1157.67725905     A.U. after   15 cycles
 SCF Done:  E(UB+HF-LYP) =  -1157.68207933     A.U. after   14 cycles
 SCF Done:  E(UB+HF-LYP) =  -1157.68576228     A.U. after   13 cycles
 SCF Done:  E(UB+HF-LYP) =  -1157.68669506     A.U. after   14 cycles
 SCF Done:  E(UB+HF-LYP) =  -1157.68673593     A.U. after   13 cycles
 SCF Done:  E(UB+HF-LYP) =  -1157.68674153     A.U. after   14 cycles
 Optimization completed.
    -- Stationary point found.
 Normal termination of Gaussian 03 at Fri Jun 17 16:15:11 2011.

 --------------------------------------------------------------------
 #N Geom=AllCheck Guess=Read SCRF=Check GenChk UB3LYP/6-311+G(d) Freq
 --------------------------------------------------------------------

 si3-c
 -----
 Redundant internal coordinates taken from checkpoint file:
 S9L-ne-d-01.chk
 Charge =  1 Multiplicity = 2

                         Standard orientation:
 ---------------------------------------------------------------------
 Center     Atomic     Atomic              Coordinates (Angstroms)
 Number     Number      Type              X           Y           Z
 ---------------------------------------------------------------------
    1         14             0        0.000000    0.000000    1.341467
    2         14             0        0.000000    1.875890   -0.000013
    3         14             0        0.000000    0.000000   -1.341441
    4         14             0        0.000000   -1.875890   -0.000013
 ---------------------------------------------------------------------

 SCF Done:  E(UB+HF-LYP) =  -1157.68674153     A.U. after    1 cycles

 The electronic state is 2-B2.
 Alpha  occ. eigenvalues --  -66.34324 -66.34323 -66.31625 -66.31625  -5.51068
 Alpha  occ. eigenvalues --   -5.51065  -5.48615  -5.48614  -3.87017  -3.87017
 Alpha  occ. eigenvalues --   -3.86878  -3.86878  -3.86682  -3.86682  -3.84554
 Alpha  occ. eigenvalues --   -3.84553  -3.84314  -3.84301  -3.84268  -3.84268
 Alpha  occ. eigenvalues --   -0.81041  -0.69131  -0.62676  -0.53484  -0.46783
 Alpha  occ. eigenvalues --   -0.44771  -0.43171  -0.42510
 Alpha virt. eigenvalues --   -0.32549  -0.28494  -0.28320  -0.21910  -0.19130
 Alpha virt. eigenvalues --   -0.16035  -0.14826  -0.13831  -0.12473  -0.09112
 Alpha virt. eigenvalues --   -0.08361  -0.07880  -0.06850  -0.06784  -0.05749

  Beta  occ. eigenvalues --  -66.34113 -66.34113 -66.31580 -66.31579  -5.50847
  Beta  occ. eigenvalues --   -5.50844  -5.48572  -5.48572  -3.86881  -3.86880
  Beta  occ. eigenvalues --   -3.86560  -3.86560  -3.86229  -3.86229  -3.84539
  Beta  occ. eigenvalues --   -3.84538  -3.84307  -3.84295  -3.84075  -3.84074
  Beta  occ. eigenvalues --   -0.80104  -0.67505  -0.62208  -0.50248  -0.46036
  Beta  occ. eigenvalues --   -0.44553  -0.42756
  Beta virt. eigenvalues --   -0.34883  -0.31865  -0.28469  -0.27946  -0.21177
  Beta virt. eigenvalues --   -0.18633  -0.15704  -0.14286  -0.12740  -0.11189
  Beta virt. eigenvalues --   -0.09106  -0.08156  -0.07499  -0.06747  -0.06718

 Mulliken atomic charges:
              1
     1  Si   0.117592
     2  Si   0.382417
     3  Si   0.117574
     4  Si   0.382417
 Sum of Mulliken charges=   1.00000

 Dipole moment (field-independent basis, Debye):
    X=     0.0000    Y=     0.0000    Z=     0.0000  Tot=     0.0000
 Quadrupole moment (field-independent basis, Debye-Ang):
   XX=   -44.7499   YY=   -32.4784   ZZ=   -43.9620
   XY=     0.0000   XZ=     0.0000   YZ=     0.0000

  Exact polarizability:  63.466   0.000 162.271   0.000   0.000 124.896
 Approx polarizability: 109.323   0.000 506.240   0.000   0.000 373.150

                     1                      2                      3
                    B1                     A1                     A1
 Frequencies --   110.3053               269.6319               278.8681
 Red. masses --    27.9769                27.9769                27.9769
 Frc consts  --     0.2006                 1.1984                 1.2819
 IR Inten    --     0.0178                 0.2718                 0.0000

                     4                      5                      6
                    B2                     A1                     B2
 Frequencies --   426.7541               436.0395               445.6858
 Red. masses --    27.9769                27.9769                27.9769
 Frc consts  --     3.0020                 3.1340                 3.2742
 IR Inten    --    38.1101                 0.0000                 0.0000

 - Thermochemistry -
 -------------------
 Temperature   298.150 Kelvin.  Pressure   1.00000 Atm.
 Atom  1 has atomic number 14 and mass  27.97693

 Molecular mass:   111.90771 amu.
 Principal axes and moments of inertia in atomic units:
                           1         2         3
     EIGENVALUES --   359.56653 703.141081062.70761
           X            0.00000   0.00000   1.00000
           Y            1.00000   0.00000   0.00000
           Z            0.00000   1.00000   0.00000
 This molecule is an asymmetric top.
 Rotational symmetry number  2.
 Rotational temperatures (Kelvin)      0.24088     0.12318     0.08150
 Rotational constants (GHZ):           5.01921     2.56668     1.69825
 Zero-point vibrational energy      11767.0 (Joules/Mol)
                                    2.81237 (Kcal/Mol)
 Warning -- explicit consideration of   6 degrees of freedom as
           vibrations may cause significant error
 Vibrational temperatures:    158.70   387.94   401.23   614.00   627.36
          (Kelvin)            641.24

 Zero-point correction=                           0.004482 (Hartree/Particle)
 Thermal correction to Energy=                    0.009764
 Thermal correction to Enthalpy=                  0.010708
 Thermal correction to Gibbs Free Energy=        -0.025431
 Sum of electronic and zero-point Energies=          -1157.682260
 Sum of electronic and thermal Energies=             -1157.676978
 Sum of electronic and thermal Enthalpies=           -1157.676033
 Sum of electronic and thermal Free Energies=        -1157.712173

                     E (Thermal)             CV                S
                      KCal/Mol        Cal/Mol-Kelvin    Cal/Mol-Kelvin
 Total                    6.127             15.518             76.061
 Electronic               0.000              0.000              1.377
 Translational            0.889              2.981             40.053
 Rotational               0.889              2.981             25.710
 Vibrational              4.349              9.557              8.920
 Vibration  1             0.606              1.941              3.264
 Vibration  2             0.674              1.729              1.599
 Vibration  3             0.679              1.713              1.541
 Vibration  4             0.788              1.412              0.869
 Vibration  5             0.796              1.392              0.839
 Vibration  6             0.805              1.370              0.809

 Optimization completed.
    -- Stationary point found.
 Normal termination of Gaussian 03 at Fri Jun 17 16:16:27 2011.
