 Gaussian 03, Revision E.01,

 --------------------------------------
 # hf/6-311G(d) freq scfcyc=500 scf=xqc
 --------------------------------------

 -----
 si5-c
 -----
 Symbolic Z-matrix:
 Charge =  1 Multiplicity = 2

 SCF Done:  E(UHF) =  -1444.26042051     A.U. after  129 cycles
 SCF Done:  E(UHF) =  -1444.26246393     a.u. after    9 cycles
 Normal termination of Gaussian 03 at Fri Jun 17 16:16:11 2011.
 Gaussian 03:  AM64L-G03RevE.01 11-Sep-2007

 ----------------------------------------------------------------------
 # b3lyp/6-311+G(d) opt=(readfc,noeigentest,maxcycle=500) freq scfcyc=5
 00 optcyc=500 scf=xqc geom=allcheck guess=read
 ----------------------------------------------------------------------

 -----
 No Z-matrix found on checkpoint file.
 Cartesian coordinates read from the checkpoint file:
 S9L-ne-d-01.chk
 Charge =  1 Multiplicity = 2

 SCF Done:  E(UB+HF-LYP) =  -1447.19206135     A.U. after   17 cycles
 SCF Done:  E(UB+HF-LYP) =  -1447.19803865     A.U. after   15 cycles
 SCF Done:  E(UB+HF-LYP) =  -1447.19882994     A.U. after   14 cycles
 SCF Done:  E(UB+HF-LYP) =  -1447.19884912     A.U. after   14 cycles
 SCF Done:  E(UB+HF-LYP) =  -1447.19885758     A.U. after   13 cycles
 Optimization completed.
    -- Stationary point found.
 Normal termination of Gaussian 03 at Fri Jun 17 16:19:17 2011.

 --------------------------------------------------------------------
 #N Geom=AllCheck Guess=Read SCRF=Check GenChk UB3LYP/6-311+G(d) Freq
 --------------------------------------------------------------------

 si5-c
 -----
 Redundant internal coordinates taken from checkpoint file:
 S9L-ne-d-01.chk
 Charge =  1 Multiplicity = 2

                         Standard orientation:
 ---------------------------------------------------------------------
 Center     Atomic     Atomic              Coordinates (Angstroms)
 Number     Number      Type              X           Y           Z
 ---------------------------------------------------------------------
    1         14             0        0.000000    1.607175   -0.833170
    2         14             0        0.000000   -1.607175   -0.833170
    3         14             0        0.000000    0.000000    1.647118
    4         14             0        1.566518    0.000000    0.009611
    5         14             0       -1.566518    0.000000    0.009611
 ---------------------------------------------------------------------

 SCF Done:  E(UB+HF-LYP) =  -1447.19885758     A.U. after    1 cycles

 The electronic state is 2-A1.
 Alpha  occ. eigenvalues --  -66.32417 -66.32417 -66.31465 -66.30546 -66.30546
 Alpha  occ. eigenvalues --   -5.49082  -5.49081  -5.48425  -5.47598  -5.47595
 Alpha  occ. eigenvalues --   -3.85179  -3.85179  -3.84715  -3.84714  -3.84618
 Alpha  occ. eigenvalues --   -3.84618  -3.84420  -3.84246  -3.83942  -3.83566
 Alpha  occ. eigenvalues --   -3.83565  -3.83289  -3.83288  -3.83203  -3.83203
 Alpha  occ. eigenvalues --   -0.82866  -0.65799  -0.65221  -0.64231  -0.49275
 Alpha  occ. eigenvalues --   -0.45015  -0.44378  -0.44279  -0.41792  -0.41642
 Alpha virt. eigenvalues --   -0.30831  -0.28765  -0.27308  -0.23826  -0.18397
 Alpha virt. eigenvalues --   -0.17989  -0.17337  -0.15081  -0.14831  -0.12120
 Alpha virt. eigenvalues --   -0.09605  -0.07878  -0.07833  -0.07436  -0.07098

  Beta  occ. eigenvalues --  -66.32339 -66.32339 -66.31240 -66.30526 -66.30525
  Beta  occ. eigenvalues --   -5.48998  -5.48997  -5.48161  -5.47578  -5.47575
  Beta  occ. eigenvalues --   -3.84883  -3.84883  -3.84711  -3.84710  -3.84571
  Beta  occ. eigenvalues --   -3.84570  -3.84051  -3.83884  -3.83782  -3.83559
  Beta  occ. eigenvalues --   -3.83558  -3.83208  -3.83207  -3.83194  -3.83193
  Beta  occ. eigenvalues --   -0.82218  -0.65520  -0.64375  -0.62721  -0.48096
  Beta  occ. eigenvalues --   -0.44243  -0.44111  -0.43862  -0.41424
  Beta virt. eigenvalues --   -0.35086  -0.30719  -0.27335  -0.25932  -0.22321
  Beta virt. eigenvalues --   -0.18073  -0.17806  -0.16965  -0.14993  -0.13737
  Beta virt. eigenvalues --   -0.11365  -0.09385  -0.07877  -0.07750  -0.07304

 Mulliken atomic charges:
              1
     1  Si   0.309176
     2  Si   0.309176
     3  Si   0.171939
     4  Si   0.104854
     5  Si   0.104854
 Sum of Mulliken charges=   1.00000

 Dipole moment (field-independent basis, Debye):
    X=     0.0000    Y=     0.0000    Z=     0.3090  Tot=     0.3090
 Quadrupole moment (field-independent basis, Debye-Ang):
   XX=   -51.3024   YY=   -51.6596   ZZ=   -52.8377
   XY=     0.0000   XZ=     0.0000   YZ=     0.0000

  Exact polarizability: 144.325   0.000 150.813   0.000   0.000 134.823
 Approx polarizability: 468.424   0.000 406.593   0.000   0.000 377.024

                     1                      2                      3
                    A1                     B2                     A1
 Frequencies --   134.7449               185.9558               224.1695
 Red. masses --    27.9769                27.9769                27.9769
 Frc consts  --     0.2993                 0.5700                 0.8283
 IR Inten    --     0.1009                 3.6663                 0.1814

                     4                      5                      6
                    B2                     B1                     A2
 Frequencies --   232.2494               286.3835               286.3849
 Red. masses --    27.9769                27.9769                27.9769
 Frc consts  --     0.8891                 1.3519                 1.3519
 IR Inten    --     1.3313                 1.2439                 0.0000

                     7                      8                      9
                    A1                     B1                     A1
 Frequencies --   386.2260               434.6793               473.7053
 Red. masses --    27.9769                27.9769                27.9769
 Frc consts  --     2.4589                 3.1145                 3.6988
 IR Inten    --     3.2924                 0.0393                 0.1893

 - Thermochemistry -
 -------------------
 Temperature   298.150 Kelvin.  Pressure   1.00000 Atm.
 Atom  1 has atomic number 14 and mass  27.97693

 Molecular mass:   139.88464 amu.
 Principal axes and moments of inertia in atomic units:
                           1         2         3
     EIGENVALUES --   900.11448 925.896771006.46546
           X            0.00000   1.00000   0.00000
           Y            1.00000   0.00000   0.00000
           Z            0.00000   0.00000   1.00000
 This molecule is an asymmetric top.
 Rotational symmetry number  2.
 Warning -- assumption of classical behavior for rotation
           may cause significant error
 Rotational temperatures (Kelvin)      0.09623     0.09355     0.08606
 Rotational constants (GHZ):           2.00501     1.94918     1.79315
 Zero-point vibrational energy      15817.6 (Joules/Mol)
                                    3.78050 (Kcal/Mol)
 Warning -- explicit consideration of   9 degrees of freedom as
           vibrations may cause significant error
 Vibrational temperatures:    193.87   267.55   322.53   334.15   412.04
          (Kelvin)            412.04   555.69   625.41   681.56

 Zero-point correction=                           0.006025 (Hartree/Particle)
 Thermal correction to Energy=                    0.012866
 Thermal correction to Enthalpy=                  0.013810
 Thermal correction to Gibbs Free Energy=        -0.025838
 Sum of electronic and zero-point Energies=          -1447.192833
 Sum of electronic and thermal Energies=             -1447.185992
 Sum of electronic and thermal Enthalpies=           -1447.185048
 Sum of electronic and thermal Free Energies=        -1447.224695

                     E (Thermal)             CV                S
                      KCal/Mol        Cal/Mol-Kelvin    Cal/Mol-Kelvin
 Total                    8.073             20.936             83.445
 Electronic               0.000              0.000              1.377
 Translational            0.889              2.981             40.719
 Rotational               0.889              2.981             26.842
 Vibrational              6.296             14.974             14.508
 Vibration  1             0.613              1.919              2.877
 Vibration  2             0.632              1.859              2.268
 Vibration  3             0.649              1.804              1.925
 Vibration  4             0.653              1.792              1.861
 Vibration  5             0.684              1.699              1.495
 Vibration  6             0.684              1.699              1.495
 Vibration  7             0.755              1.500              1.015
 Vibration  8             0.795              1.395              0.844
 Vibration  9             0.830              1.308              0.727

 Optimization completed.
    -- Stationary point found.
 Normal termination of Gaussian 03 at Fri Jun 17 16:21:09 2011.
