 Gaussian 03, Revision E.01,

 --------------------------------------
 # hf/6-311G(d) freq scfcyc=500 scf=xqc
 --------------------------------------

 -----
 si5-c
 -----
 Symbolic Z-matrix:
 Charge =  1 Multiplicity = 2

 SCF Done:  E(UHF) =  -1733.20510801     A.U. after   25 cycles
 ******    2 imaginary frequencies (negative Signs) ******
    2 imaginary frequencies ignored.
 Normal termination of Gaussian 03 at Fri Jun 17 16:19:19 2011.
 Gaussian 03:  AM64L-G03RevE.01 11-Sep-2007

 ----------------------------------------------------------------------
 # b3lyp/6-311+G(d) opt=(readfc,noeigentest,maxcycle=500) freq scfcyc=5
 00 optcyc=500 scf=xqc geom=allcheck guess=read
 ----------------------------------------------------------------------

 -----
 No Z-matrix found on checkpoint file.
 Cartesian coordinates read from the checkpoint file:
 S9L-ne-d-01.chk
 Charge =  1 Multiplicity = 2

 SCF Done:  E(UB+HF-LYP) =  -1736.73409358     A.U. after   22 cycles
 SCF Done:  E(UB+HF-LYP) =  -1736.74434063     A.U. after   18 cycles
 SCF Done:  E(UB+HF-LYP) =  -1736.74786290     A.U. after   16 cycles
 SCF Done:  E(UB+HF-LYP) =  -1736.74747020     A.U. after   18 cycles
 SCF Done:  E(UB+HF-LYP) =  -1736.74816682     A.U. after   18 cycles
 SCF Done:  E(UB+HF-LYP) =  -1736.74821859     A.U. after   14 cycles
 SCF Done:  E(UB+HF-LYP) =  -1736.74815976     A.U. after   12 cycles
 SCF Done:  E(UB+HF-LYP) =  -1736.74848252     A.U. after   17 cycles
 SCF Done:  E(UB+HF-LYP) =  -1736.74828371     A.U. after   14 cycles
 SCF Done:  E(UB+HF-LYP) =  -1736.74851826     A.U. after   13 cycles
 SCF Done:  E(UB+HF-LYP) =  -1736.74853093     A.U. after   18 cycles
 SCF Done:  E(UB+HF-LYP) =  -1736.74854229     A.U. after   18 cycles
 Optimization completed.
    -- Stationary point found.
 Normal termination of Gaussian 03 at Fri Jun 17 16:30:08 2011.

 --------------------------------------------------------------------
 #N Geom=AllCheck Guess=Read SCRF=Check GenChk UB3LYP/6-311+G(d) Freq
 --------------------------------------------------------------------

 si5-c
 -----
 Redundant internal coordinates taken from checkpoint file:
 S9L-ne-d-01.chk
 Charge =  1 Multiplicity = 2

                         Standard orientation:
 ---------------------------------------------------------------------
 Center     Atomic     Atomic              Coordinates (Angstroms)
 Number     Number      Type              X           Y           Z
 ---------------------------------------------------------------------
    1         14             0        0.000018    0.239057    1.428879
    2         14             0        0.000018    2.145195    0.000000
    3         14             0       -0.000105   -1.956249    0.000000
    4         14             0        1.804821   -0.333615    0.000000
    5         14             0       -1.804770   -0.333444    0.000000
    6         14             0        0.000018    0.239057   -1.428879
 ---------------------------------------------------------------------

 SCF Done:  E(UB+HF-LYP) =  -1736.74854229     A.U. after    1 cycles

 The electronic state is 2-A'.
 Alpha  occ. eigenvalues --  -66.31851 -66.31072 -66.31071 -66.30921 -66.29433
 Alpha  occ. eigenvalues --  -66.29433  -5.48481  -5.47935  -5.47934  -5.47664
 Alpha  occ. eigenvalues --   -5.46563  -5.46558  -3.84488  -3.84162  -3.84003
 Alpha  occ. eigenvalues --   -3.83866  -3.83865  -3.83687  -3.83686  -3.83625
 Alpha  occ. eigenvalues --   -3.83624  -3.83608  -3.83342  -3.83295  -3.82493
 Alpha  occ. eigenvalues --   -3.82488  -3.82253  -3.82253  -3.82213  -3.82213
 Alpha  occ. eigenvalues --   -0.84950  -0.69107  -0.68366  -0.64542  -0.55045
 Alpha  occ. eigenvalues --   -0.51265  -0.44936  -0.44912  -0.44773  -0.44068
 Alpha  occ. eigenvalues --   -0.40232  -0.40170
 Alpha virt. eigenvalues --   -0.28492  -0.26750  -0.26383  -0.25701  -0.19434
 Alpha virt. eigenvalues --   -0.18247  -0.17360  -0.16778  -0.13694  -0.13594
 Alpha virt. eigenvalues --   -0.12663  -0.12347  -0.09470  -0.07817  -0.07797

  Beta  occ. eigenvalues --  -66.31850 -66.30887 -66.30859 -66.30858 -66.29411
  Beta  occ. eigenvalues --  -66.29411  -5.48480  -5.47705  -5.47704  -5.47630
  Beta  occ. eigenvalues --   -5.46542  -5.46537  -3.84477  -3.84163  -3.84011
  Beta  occ. eigenvalues --   -3.83592  -3.83558  -3.83557  -3.83486  -3.83485
  Beta  occ. eigenvalues --   -3.83297  -3.83243  -3.83230  -3.83198  -3.82488
  Beta  occ. eigenvalues --   -3.82483  -3.82207  -3.82207  -3.82162  -3.82162
  Beta  occ. eigenvalues --   -0.84396  -0.68877  -0.67052  -0.64331  -0.54478
  Beta  occ. eigenvalues --   -0.48370  -0.44885  -0.44408  -0.44314  -0.43739
  Beta  occ. eigenvalues --   -0.40155
  Beta virt. eigenvalues --   -0.32545  -0.28435  -0.26555  -0.25887  -0.25367
  Beta virt. eigenvalues --   -0.18885  -0.17899  -0.16854  -0.16436  -0.12876
  Beta virt. eigenvalues --   -0.12700  -0.12655  -0.11218  -0.09070  -0.07763

 Mulliken atomic charges:
              1
     1  Si  -0.089991
     2  Si   0.471068
     3  Si   0.166714
     4  Si   0.271146
     5  Si   0.271053
     6  Si  -0.089991
 Sum of Mulliken charges=   1.00000

 Dipole moment (field-independent basis, Debye):
    X=     0.0001    Y=     0.1962    Z=     0.0000  Tot=     0.1962
 Quadrupole moment (field-independent basis, Debye-Ang):
   XX=   -62.4339   YY=   -62.8812   ZZ=   -66.4082
   XY=    -0.0003   XZ=     0.0000   YZ=     0.0000

  Exact polarizability: 166.273  -0.001 186.967   0.000   0.000 141.974
 Approx polarizability: 482.246  -0.008 561.787   0.000   0.000 440.079

                     1                      2                      3
                    A'                     A"                     A'
 Frequencies --    69.5251                90.3457               152.7806
 Red. masses --    27.9769                27.9769                27.9769
 Frc consts  --     0.0797                 0.1345                 0.3848
 IR Inten    --     0.1631                 0.0056                 0.0163

                     4                      5                      6
                    A'                     A'                     A"
 Frequencies --   299.3367               306.5299               309.3418
 Red. masses --    27.9769                27.9769                27.9769
 Frc consts  --     1.4770                 1.5488                 1.5773
 IR Inten    --     0.8753                 0.6556                 0.2323

                     7                      8                      9
                    A'                     A"                     A"
 Frequencies --   334.1336               353.4051               370.4656
 Red. masses --    27.9769                27.9769                27.9769
 Frc consts  --     1.8403                 2.0587                 2.2623
 IR Inten    --     0.0342                 0.3947                 0.0000

                    10                     11                     12
                    A'                     A'                     A'
 Frequencies --   405.1712               410.7577               442.1213
 Red. masses --    27.9769                27.9769                27.9769
 Frc consts  --     2.7060                 2.7811                 3.2221
 IR Inten    --    28.7073                 5.9992                 0.0015

 - Thermochemistry -
 -------------------
 Temperature   298.150 Kelvin.  Pressure   1.00000 Atm.
 Atom  1 has atomic number 14 and mass  27.97693

 Molecular mass:   167.86157 amu.
 Principal axes and moments of inertia in atomic units:
                           1         2         3
     EIGENVALUES --  1058.815231283.704571526.59785
           X           -0.00003   1.00000   0.00000
           Y            1.00000   0.00003   0.00000
           Z            0.00000   0.00000   1.00000
 This molecule is an asymmetric top.
 Rotational symmetry number  1.
 Warning -- assumption of classical behavior for rotation
           may cause significant error
 Rotational temperatures (Kelvin)      0.08180     0.06747     0.05674
 Rotational constants (GHZ):           1.70449     1.40589     1.18220
 Zero-point vibrational energy      21197.3 (Joules/Mol)
                                    5.06628 (Kcal/Mol)
 Warning -- explicit consideration of  12 degrees of freedom as
           vibrations may cause significant error
 Vibrational temperatures:    100.03   129.99   219.82   430.68   441.03
          (Kelvin)            445.07   480.74   508.47   533.02   582.95
                              590.99   636.11

 Zero-point correction=                           0.008074 (Hartree/Particle)
 Thermal correction to Energy=                    0.016284
 Thermal correction to Enthalpy=                  0.017228
 Thermal correction to Gibbs Free Energy=        -0.026740
 Sum of electronic and zero-point Energies=          -1736.740469
 Sum of electronic and thermal Energies=             -1736.732258
 Sum of electronic and thermal Enthalpies=           -1736.731314
 Sum of electronic and thermal Free Energies=        -1736.775282

                     E (Thermal)             CV                S
                      KCal/Mol        Cal/Mol-Kelvin    Cal/Mol-Kelvin
 Total                   10.218             25.771             92.539
 Electronic               0.000              0.000              1.377
 Translational            0.889              2.981             41.262
 Rotational               0.889              2.981             29.119
 Vibrational              8.441             19.809             20.781
 Vibration  1             0.598              1.969              4.167
 Vibration  2             0.602              1.956              3.653
 Vibration  3             0.619              1.900              2.637
 Vibration  4             0.692              1.675              1.421
 Vibration  5             0.697              1.661              1.381
 Vibration  6             0.699              1.656              1.366
 Vibration  7             0.716              1.607              1.240
 Vibration  8             0.730              1.568              1.151
 Vibration  9             0.742              1.533              1.078
 Vibration 10             0.770              1.459              0.944
 Vibration 11             0.775              1.447              0.924
 Vibration 12             0.802              1.378              0.820

 Normal termination of Gaussian 03 at Fri Jun 17 16:34:17 2011.
