 Gaussian 03, Revision E.01,

 ----------------------------------------------------------------------
 # hf/LANL2DZ opt=(calcall,noeigentest,maxcycle=500) nosym scfcyc=500 s
 cf=xqc
 ----------------------------------------------------------------------

 -----------------------
 si6-an-doublet-isomer01
 -----------------------
 Symbolic Z-matrix:
 Charge = -1 Multiplicity = 2

 SCF Done:  E(UHF) =  -22.3355698260     A.U. after   20 cycles
 SCF Done:  E(UHF) =  -22.3443032496     A.U. after   20 cycles
 SCF Done:  E(UHF) =  -22.3515789178     A.U. after   21 cycles
 SCF Done:  E(UHF) =  -22.3542314077     A.U. after   20 cycles
 SCF Done:  E(UHF) =  -22.3556681527     A.U. after   21 cycles
 SCF Done:  E(UHF) =  -22.3559503771     A.U. after   25 cycles
 SCF Done:  E(UHF) =  -22.3559794372     A.U. after   29 cycles
 SCF Done:  E(UHF) =  -22.3523839697     A.U. after   29 cycles
 SCF Done:  E(UHF) =  -22.3559765384     A.U. after   28 cycles
 SCF Done:  E(UHF) =  -22.3560132981     A.U. after   31 cycles
 Optimization completed.
    -- Stationary point found.
 Normal termination of Gaussian 03 at Tue Nov  9 12:13:59 2010.

 ----------------------------------------------------------------------
 # b3lyp/6-311G(d) opt=(readfc,noeigentest,maxcycle=500) freq scfcyc=50
 0 optcyc=500 geom=allcheck guess=read scf=xqc
 ----------------------------------------------------------------------

 si6-an-doublet-isomer01
 -----------------------
 Redundant internal coordinates taken from checkpoint file:
 S6-an-d-01.chk
 Charge = -1 Multiplicity = 2

 SCF Done:  E(UB+HF-LYP) =  -1737.10155653     A.U. after   19 cycles
 SCF Done:  E(UB+HF-LYP) =  -1737.10156571     A.U. after   17 cycles
 SCF Done:  E(UB+HF-LYP) =  -1737.10156756     A.U. after   17 cycles
 SCF Done:  E(UB+HF-LYP) =  -1737.10156798     A.U. after   17 cycles
 SCF Done:  E(UB+HF-LYP) =  -1737.10156781     A.U. after   17 cycles
 SCF Done:  E(UB+HF-LYP) =  -1737.10156802     A.U. after   17 cycles
 Optimization completed.
 Normal termination of Gaussian 03 at Tue Nov  9 12:24:27 2010.

 -------------------------------------------------------------------
 #N Geom=AllCheck Guess=Read SCRF=Check GenChk UB3LYP/6-311G(d) Freq
 -------------------------------------------------------------------

 si6-an-doublet-isomer01
 -----------------------
 Redundant internal coordinates taken from checkpoint file:
 S6-an-d-01.chk
 Charge = -1 Multiplicity = 2

 SCF Done:  E(UB+HF-LYP) =  -1737.10156802     A.U. after    1 cycles
 Normal termination of Gaussian 03 at Tue Nov  9 12:28:06 2010.
 Gaussian 03:  AM64L-G03RevE.01 11-Sep-2007

 ----------------------------------------------------------------------
 # b3lyp/6-311+G(d) opt=(readfc,noeigentest,maxcycle=500) freq scfcyc=5
 00 optcyc=500 scf=xqc geom=allcheck guess=read
 ----------------------------------------------------------------------

 si6-an-doublet-isomer01
 -----------------------
 Redundant internal coordinates taken from checkpoint file:
 S6-an-d-01.chk
 Charge = -1 Multiplicity = 2

 SCF Done:  E(UB+HF-LYP) =  -1737.10748824     A.U. after   12 cycles
 SCF Done:  E(UB+HF-LYP) =  -1737.10749628     A.U. after   13 cycles
    -- Stationary point found.
 Normal termination of Gaussian 03 at Tue Nov  9 12:30:16 2010.

 --------------------------------------------------------------------
 #N Geom=AllCheck Guess=Read SCRF=Check GenChk UB3LYP/6-311+G(d) Freq
 --------------------------------------------------------------------

 si6-an-doublet-isomer01
 -----------------------
 Redundant internal coordinates taken from checkpoint file:
 S6-an-d-01.chk
 Charge = -1 Multiplicity = 2

                         Standard orientation:
 ---------------------------------------------------------------------
 Center     Atomic     Atomic              Coordinates (Angstroms)
 Number     Number      Type              X           Y           Z
 ---------------------------------------------------------------------
    1         14             0       -1.164318    1.409095   -0.000001
    2         14             0       -1.975330   -0.952569    0.000000
    3         14             0        1.164310    1.409098   -0.000001
    4         14             0        1.975335   -0.952562    0.000000
    5         14             0        0.000001   -0.456533   -1.273687
    6         14             0        0.000002   -0.456530    1.273690
 ---------------------------------------------------------------------

 SCF Done:  E(UB+HF-LYP) =  -1737.10749628     A.U. after    1 cycles

 The electronic state is 2-A.
 Alpha  occ. eigenvalues --  -65.95632 -65.95632 -65.95202 -65.95202 -65.94997
 Alpha  occ. eigenvalues --  -65.94997  -5.12562  -5.12560  -5.12224  -5.12215
 Alpha  occ. eigenvalues --   -5.12135  -5.12130  -3.48473  -3.48473  -3.48431
 Alpha  occ. eigenvalues --   -3.48430  -3.48136  -3.48135  -3.48100  -3.48094
 Alpha  occ. eigenvalues --   -3.48044  -3.48035  -3.48006  -3.47989  -3.47862
 Alpha  occ. eigenvalues --   -3.47855  -3.47847  -3.47818  -3.47818  -3.47787
 Alpha  occ. eigenvalues --   -0.50700  -0.37497  -0.32987  -0.28537  -0.21026
 Alpha  occ. eigenvalues --   -0.20225  -0.12876  -0.11907  -0.09552  -0.08740
 Alpha  occ. eigenvalues --   -0.08441  -0.06732  -0.02994
 Alpha virt. eigenvalues --    0.05268   0.08015   0.09279   0.09687   0.09924
 Alpha virt. eigenvalues --    0.11344   0.11734   0.12021   0.13272   0.13494
 Alpha virt. eigenvalues --    0.13970   0.15110   0.15290   0.15526   0.15550

  Beta  occ. eigenvalues --  -65.95496 -65.95496 -65.95127 -65.95127 -65.95008
  Beta  occ. eigenvalues --  -65.95008  -5.12426  -5.12424  -5.12149  -5.12142
  Beta  occ. eigenvalues --   -5.12140  -5.12132  -3.48348  -3.48348  -3.48097
  Beta  occ. eigenvalues --   -3.48095  -3.48047  -3.48040  -3.48027  -3.48002
  Beta  occ. eigenvalues --   -3.47979  -3.47973  -3.47891  -3.47888  -3.47829
  Beta  occ. eigenvalues --   -3.47819  -3.47814  -3.47806  -3.47805  -3.47753
  Beta  occ. eigenvalues --   -0.50408  -0.36476  -0.32349  -0.28526  -0.19903
  Beta  occ. eigenvalues --   -0.19040  -0.11620  -0.11527  -0.09288  -0.08318
  Beta  occ. eigenvalues --   -0.07992  -0.06276
  Beta virt. eigenvalues --    0.02783   0.05542   0.08360   0.09313   0.09961
  Beta virt. eigenvalues --    0.10112   0.11439   0.11913   0.12679   0.13386
  Beta virt. eigenvalues --    0.13617   0.14000   0.15256   0.15452   0.15550

 Mulliken atomic charges:
              1
     1  Si  -0.195652
     2  Si  -0.038888
     3  Si  -0.195653
     4  Si  -0.038887
     5  Si  -0.265460
     6  Si  -0.265460
 Sum of Mulliken charges=  -1.00000

 Dipole moment (field-independent basis, Debye):
    X=     0.0000    Y=     0.0215    Z=     0.0000  Tot=     0.0215
 Quadrupole moment (field-independent basis, Debye-Ang):
   XX=  -106.7046   YY=   -98.8365   ZZ=   -90.4139
   XY=     0.0000   XZ=     0.0000   YZ=     0.0000

  Exact polarizability: 277.646   0.000 229.071   0.000   0.000 182.764
 Approx polarizability: 686.655   0.000 535.541   0.000   0.000 474.298

                     1                      2                      3
                     A                      A                      A
 Frequencies --   110.4002               148.4147               207.3028
 Red. masses --    27.9769                27.9769                27.9769
 Frc consts  --     0.2009                 0.3631                 0.7084
 IR Inten    --     0.0000                 0.0996                 3.3850

                     4                      5                      6
                     A                      A                      A
 Frequencies --   235.3403               273.4530               286.5992
 Red. masses --    27.9769                27.9769                27.9769
 Frc consts  --     0.9129                 1.2326                 1.3539
 IR Inten    --     3.9870                 1.5439                 0.0527

                     7                      8                      9
                     A                      A                      A
 Frequencies --   304.4739               339.9886               340.2673
 Red. masses --    27.9769                27.9769                27.9769
 Frc consts  --     1.5281                 1.9054                 1.9085
 IR Inten    --     0.1609                 0.0000                 0.0335

                    10                     11                     12
                     A                      A                      A
 Frequencies --   418.1214               433.3144               435.7438
 Red. masses --    27.9769                27.9769                27.9769
 Frc consts  --     2.8817                 3.0950                 3.1298
 IR Inten    --     0.5248                 0.0023                 4.1454

 - Thermochemistry -
 -------------------
 Temperature   298.150 Kelvin.  Pressure   1.00000 Atm.
 Atom  1 has atomic number 14 and mass  27.97693

 Molecular mass:   167.86157 amu.
 Principal axes and moments of inertia in atomic units:
                           1         2         3
     EIGENVALUES --   943.853051374.695581670.23624
           X            1.00000   0.00000   0.00000
           Y            0.00000   1.00000   0.00000
           Z            0.00000   0.00000   1.00000
 This molecule is an asymmetric top.
 Rotational symmetry number  1.
 Warning -- assumption of classical behavior for rotation
           may cause significant error
 Rotational temperatures (Kelvin)      0.09177     0.06301     0.05186
 Rotational constants (GHZ):           1.91210     1.31283     1.08053
 Zero-point vibrational energy      21134.5 (Joules/Mol)
                                    5.05128 (Kcal/Mol)
 Warning -- explicit consideration of  12 degrees of freedom as
           vibrations may cause significant error
 Vibrational temperatures:    158.84   213.54   298.26   338.60   393.44
          (Kelvin)            412.35   438.07   489.17   489.57   601.58
                              623.44   626.94

 Zero-point correction=                           0.008050 (Hartree/Particle)
 Thermal correction to Energy=                    0.016198
 Thermal correction to Enthalpy=                  0.017142
 Thermal correction to Gibbs Free Energy=        -0.026157
 Sum of electronic and zero-point Energies=          -1737.099447
 Sum of electronic and thermal Energies=             -1737.091299
 Sum of electronic and thermal Enthalpies=           -1737.090355
 Sum of electronic and thermal Free Energies=        -1737.133654

                     E (Thermal)             CV                S
                      KCal/Mol        Cal/Mol-Kelvin    Cal/Mol-Kelvin
 Total                   10.164             25.921             91.131
 Electronic               0.000              0.000              1.377
 Translational            0.889              2.981             41.262
 Rotational               0.889              2.981             29.162
 Vibrational              8.387             19.959             19.329
 Vibration  1             0.606              1.941              3.262
 Vibration  2             0.618              1.904              2.692
 Vibration  3             0.641              1.829              2.067
 Vibration  4             0.655              1.787              1.838
 Vibration  5             0.676              1.722              1.574
 Vibration  6             0.684              1.699              1.494
 Vibration  7             0.695              1.665              1.392
 Vibration  8             0.720              1.596              1.212
 Vibration  9             0.720              1.595              1.211
 Vibration 10             0.781              1.431              0.898
 Vibration 11             0.794              1.398              0.848
 Vibration 12             0.796              1.392              0.840

 Optimization completed.
    -- Stationary point found.
 Normal termination of Gaussian 03 at Tue Nov  9 12:35:38 2010.
