 Gaussian 03, Revision E.01,

 ----------------------------------------------------------------------
 # b3lyp/LANL2DZ opt=(calcall,noeigentest,maxcycle=500) scfcyc=500 scf=
 xqc
 ----------------------------------------------------------------------

 -----
 si7-n
 -----
 Symbolic Z-matrix:
 Charge =  0 Multiplicity = 1

 SCF Done:  E(RB+HF-LYP) =  -26.9664149880     A.U. after   14 cycles
 SCF Done:  E(RB+HF-LYP) =  -26.9769150782     A.U. after   14 cycles
 SCF Done:  E(RB+HF-LYP) =  -26.9853292314     A.U. after   14 cycles
 SCF Done:  E(RB+HF-LYP) =  -26.9877353730     A.U. after   14 cycles
 SCF Done:  E(RB+HF-LYP) =  -26.9877554524     A.U. after   10 cycles
 Optimization completed.
    -- Stationary point found.
 Normal termination of Gaussian 03 at Mon Apr  4 16:03:37 2011.

 ----------------------------------------------------------------------
 # b3lyp/6-31G(d) opt=(readfc,noeigentest,maxcycle=500) freq scfcyc=500
  optcyc=500 geom=allcheck guess=read scf=xqc
 ----------------------------------------------------------------------

 si7-n
 -----
 Redundant internal coordinates taken from checkpoint file:
 S9L-ne-d-01.chk
 Charge =  0 Multiplicity = 1

 SCF Done:  E(RB+HF-LYP) =  -2026.38120671     A.U. after   19 cycles
 SCF Done:  E(RB+HF-LYP) =  -2026.39110591     A.U. after   12 cycles
 SCF Done:  E(RB+HF-LYP) =  -2026.40097761     A.U. after   12 cycles
 SCF Done:  E(RB+HF-LYP) =  -2026.40485735     A.U. after   12 cycles
 SCF Done:  E(RB+HF-LYP) =  -2026.40505655     A.U. after   11 cycles
 SCF Done:  E(RB+HF-LYP) =  -2026.40507400     A.U. after    8 cycles
 Optimization completed.
 Normal termination of Gaussian 03 at Mon Apr  4 16:06:52 2011.

 ------------------------------------------------------------------
 #N Geom=AllCheck Guess=Read SCRF=Check GenChk RB3LYP/6-31G(d) Freq
 ------------------------------------------------------------------

 si7-n
 -----
 Redundant internal coordinates taken from checkpoint file:
 S9L-ne-d-01.chk
 Charge =  0 Multiplicity = 1

 SCF Done:  E(RB+HF-LYP) =  -2026.40507400     A.U. after    1 cycles
 Normal termination of Gaussian 03 at Mon Apr  4 16:08:18 2011.

 ----------------------------------------------------------------------
 # b3lyp/6-311G(d) opt=(readfc,noeigentest,maxcycle=500) freq scfcyc=50
 0 optcyc=500 geom=allcheck guess=read scf=xqc
 ----------------------------------------------------------------------

 si7-n
 -----
 Redundant internal coordinates taken from checkpoint file:
 S9L-ne-d-01.chk
 Charge =  0 Multiplicity = 1

 SCF Done:  E(RB+HF-LYP) =  -2026.55241566     A.U. after   10 cycles
 SCF Done:  E(RB+HF-LYP) =  -2026.55245931     A.U. after    8 cycles
 Normal termination of Gaussian 03 at Mon Apr  4 16:09:42 2011.

 -------------------------------------------------------------------
 #N Geom=AllCheck Guess=Read SCRF=Check GenChk RB3LYP/6-311G(d) Freq
 -------------------------------------------------------------------

 si7-n
 -----
 Redundant internal coordinates taken from checkpoint file:
 S9L-ne-d-01.chk
 Charge =  0 Multiplicity = 1

 SCF Done:  E(RB+HF-LYP) =  -2026.55245931     A.U. after    1 cycles
 Normal termination of Gaussian 03 at Mon Apr  4 16:11:58 2011.
 Gaussian 03:  AM64L-G03RevE.01 11-Sep-2007

 ----------------------------------------------------------------------
 # b3lyp/6-311+G(d) opt=(readfc,noeigentest,maxcycle=500) freq scfcyc=5
 00 optcyc=500 scf=xqc geom=allcheck guess=read
 ----------------------------------------------------------------------

 si7-n
 -----
 Redundant internal coordinates taken from checkpoint file:
 S9L-ne-d-01.chk
 Charge =  0 Multiplicity = 1

 SCF Done:  E(RB+HF-LYP) =  -2026.55661693     A.U. after   10 cycles
    -- Stationary point found.
 Normal termination of Gaussian 03 at Mon Apr  4 16:12:54 2011.

                         Standard orientation:
 ---------------------------------------------------------------------
 Center     Atomic     Atomic              Coordinates (Angstroms)
 Number     Number      Type              X           Y           Z
 ---------------------------------------------------------------------
    1         14             0        0.000000    2.029803    0.659468
    2         14             0        0.000000    0.000000    2.134340
    3         14             0        0.000000   -2.029803    0.659468
    4         14             0        0.000000   -1.254513   -1.726762
    5         14             0        0.000000    1.254513   -1.726762
    6         14             0       -1.289223    0.000000    0.000123
    7         14             0        1.289223    0.000000    0.000123
 ---------------------------------------------------------------------

 SCF Done:  E(RB+HF-LYP) =  -2026.55661693     A.U. after    1 cycles

 The electronic state is 1-A1.
 Alpha  occ. eigenvalues --  -66.12661 -66.12661 -66.12459 -66.12459 -66.12459
 Alpha  occ. eigenvalues --  -66.12458 -66.12458  -5.29846  -5.29838  -5.29323
 Alpha  occ. eigenvalues --   -5.29322  -5.29322  -5.29317  -5.29316  -3.65763
 Alpha  occ. eigenvalues --   -3.65742  -3.65530  -3.65530  -3.65528  -3.65528
 Alpha  occ. eigenvalues --   -3.65256  -3.65254  -3.65254  -3.65252  -3.65252
 Alpha  occ. eigenvalues --   -3.64989  -3.64984  -3.64984  -3.64973  -3.64973
 Alpha  occ. eigenvalues --   -3.64954  -3.64954  -3.64935  -3.64934  -3.64924
 Alpha  occ. eigenvalues --   -0.69351  -0.54623  -0.54623  -0.46808  -0.38842
 Alpha  occ. eigenvalues --   -0.38842  -0.37778  -0.28491  -0.28491  -0.27151
 Alpha  occ. eigenvalues --   -0.24781  -0.24780  -0.23357  -0.23357
 Alpha virt. eigenvalues --   -0.11743  -0.08494  -0.08493  -0.04772  -0.04536
 Alpha virt. eigenvalues --   -0.04535  -0.03426  -0.03127  -0.03126  -0.00774
 Alpha virt. eigenvalues --   -0.00774   0.01265   0.01266   0.02342   0.03750

 Mulliken atomic charges:
              1
     1  Si   0.177198
     2  Si   0.177285
     3  Si   0.177198
     4  Si   0.177144
     5  Si   0.177144
     6  Si  -0.442985
     7  Si  -0.442985
 Sum of Mulliken charges=   0.00000

 Dipole moment (field-independent basis, Debye):
    X=     0.0000    Y=     0.0000    Z=    -0.0005  Tot=     0.0005
 Quadrupole moment (field-independent basis, Debye-Ang):
   XX=   -88.3186   YY=   -96.2188   ZZ=   -96.2145
   XY=     0.0000   XZ=     0.0000   YZ=     0.0000

  Exact polarizability: 155.796   0.000 237.742   0.000   0.000 237.742
 Approx polarizability: 458.540   0.000 678.038   0.000   0.000 678.099

                     1                      2                      3
                    A2                     B1                     A1
 Frequencies --   158.6122               159.0907               214.2256
 Red. masses --    27.9769                27.9769                27.9769
 Frc consts  --     0.4147                 0.4172                 0.7565
 IR Inten    --     0.0000                 0.0000                 0.0472

                     4                      5                      6
                    B2                     B1                     B2
 Frequencies --   214.3334               217.6796               269.2860
 Red. masses --    27.9769                27.9769                27.9769
 Frc consts  --     0.7572                 0.7811                 1.1953
 IR Inten    --     0.0471                 0.5892                 0.0000

                     7                      8                      9
                    A1                     A2                     B1
 Frequencies --   269.4633               318.2077               318.3059
 Red. masses --    27.9769                27.9769                27.9769
 Frc consts  --     1.1969                 1.6691                 1.6701
 IR Inten    --     0.0000                 0.0000                 0.0000

                    10                     11                     12
                    A1                     B2                     A1
 Frequencies --   331.4300               331.7883               350.0107
 Red. masses --    27.9769                27.9769                27.9769
 Frc consts  --     1.8106                 1.8146                 2.0194
 IR Inten    --     0.0001                 0.0002                 0.0006

                    13                     14                     15
                    A1                     B2                     A1
 Frequencies --   399.8064               399.8466               418.3453
 Red. masses --    27.9769                27.9769                27.9769
 Frc consts  --     2.6348                 2.6353                 2.8848
 IR Inten    --    15.5360                15.5287                 0.0003

 - Thermochemistry -
 -------------------
 Temperature   298.150 Kelvin.  Pressure   1.00000 Atm.
 Atom  1 has atomic number 14 and mass  27.97693

 Molecular mass:   195.83850 amu.
 Principal axes and moments of inertia in atomic units:
                           1         2         3
     EIGENVALUES --  1469.837561469.918832275.53383
           X            0.00000   0.00000   1.00000
           Y            0.00000   1.00000   0.00000
           Z            1.00000   0.00000   0.00000
 This molecule is an asymmetric top.
 Rotational symmetry number  2.
 Warning -- assumption of classical behavior for rotation
           may cause significant error
 Rotational temperatures (Kelvin)      0.05893     0.05892     0.03806
 Rotational constants (GHZ):           1.22785     1.22778     0.79311
 Zero-point vibrational energy      26141.0 (Joules/Mol)
                                    6.24785 (Kcal/Mol)
 Warning -- explicit consideration of  15 degrees of freedom as
           vibrations may cause significant error
 Vibrational temperatures:    228.21   228.90   308.22   308.38   313.19
          (Kelvin)            387.44   387.70   457.83   457.97   476.85
                              477.37   503.59   575.23   575.29   601.90

 Zero-point correction=                           0.009957 (Hartree/Particle)
 Thermal correction to Energy=                    0.019408
 Thermal correction to Enthalpy=                  0.020352
 Thermal correction to Gibbs Free Energy=        -0.024202
 Sum of electronic and zero-point Energies=          -2026.546660
 Sum of electronic and thermal Energies=             -2026.537209
 Sum of electronic and thermal Enthalpies=           -2026.536265
 Sum of electronic and thermal Free Energies=        -2026.580819

                     E (Thermal)             CV                S
                      KCal/Mol        Cal/Mol-Kelvin    Cal/Mol-Kelvin
 Total                   12.179             31.107             93.772
 Electronic               0.000              0.000              0.000
 Translational            0.889              2.981             41.722
 Rotational               0.889              2.981             28.599
 Vibrational             10.401             25.146             23.452
 Vibration  1             0.621              1.893              2.566
 Vibration  2             0.621              1.892              2.561
 Vibration  3             0.644              1.819              2.007
 Vibration  4             0.644              1.819              2.006
 Vibration  5             0.646              1.814              1.978
 Vibration  6             0.674              1.730              1.601
 Vibration  7             0.674              1.729              1.600
 Vibration  8             0.705              1.639              1.319
 Vibration  9             0.705              1.639              1.319
 Vibration 10             0.714              1.613              1.253
 Vibration 11             0.714              1.612              1.251
 Vibration 12             0.727              1.575              1.166
 Vibration 13             0.766              1.471              0.963
 Vibration 14             0.766              1.470              0.963
 Vibration 15             0.781              1.430              0.898

 Optimization completed.
    -- Stationary point found.
 Normal termination of Gaussian 03 at Mon Apr  4 16:16:11 2011.
