 Gaussian 03, Revision E.01,

 --------------------------------------
 # hf/6-311G(d) freq scfcyc=500 scf=xqc
 --------------------------------------

 -----
 si7-c
 -----
 Symbolic Z-matrix:
 Charge =  1 Multiplicity = 2

 SCF Done:  E(UHF) =  -2022.13878250     A.U. after   24 cycles
 ******    3 imaginary frequencies (negative Signs) ******
    3 imaginary frequencies ignored.
 Normal termination of Gaussian 03 at Fri Jun 17 16:25:16 2011.
 Gaussian 03:  AM64L-G03RevE.01 11-Sep-2007

 ----------------------------------------------------------------------
 # b3lyp/6-311+G(d) opt=(readfc,noeigentest,maxcycle=500) freq scfcyc=5
 00 optcyc=500 scf=xqc geom=allcheck guess=read
 ----------------------------------------------------------------------

 -----
 No Z-matrix found on checkpoint file.
 Cartesian coordinates read from the checkpoint file:
 S9L-ne-d-01.chk
 Charge =  1 Multiplicity = 2

 SCF Done:  E(UB+HF-LYP) =  -2026.26108154     A.U. after   17 cycles
 SCF Done:  E(UB+HF-LYP) =  -2026.26342923     A.U. after   17 cycles
 SCF Done:  E(UB+HF-LYP) =  -2026.26767696     A.U. after   15 cycles
 SCF Done:  E(UB+HF-LYP) =  -2026.26508926     A.U. after   14 cycles
 SCF Done:  E(UB+HF-LYP) =  -2026.26647436     A.U. after   14 cycles
 SCF Done:  E(UB+HF-LYP) =  -2026.26765290     A.U. after   14 cycles
 SCF Done:  E(UB+HF-LYP) =  -2026.26770523     A.U. after   13 cycles
 SCF Done:  E(UB+HF-LYP) =  -2026.26642612     A.U. after   14 cycles
 SCF Done:  E(UB+HF-LYP) =  -2026.26762007     A.U. after   14 cycles
 SCF Done:  E(UB+HF-LYP) =  -2026.27204551     A.U. after   13 cycles
 SCF Done:  E(UB+HF-LYP) =  -2026.27204170     A.U. after   11 cycles
 SCF Done:  E(UB+HF-LYP) =  -2026.27201794     A.U. after   13 cycles
 SCF Done:  E(UB+HF-LYP) =  -2026.27204962     A.U. after   12 cycles
 SCF Done:  E(UB+HF-LYP) =  -2026.27204934     A.U. after   11 cycles
 SCF Done:  E(UB+HF-LYP) =  -2026.27204989     A.U. after   10 cycles
 SCF Done:  E(UB+HF-LYP) =  -2026.27205079     A.U. after   10 cycles
 SCF Done:  E(UB+HF-LYP) =  -2026.27205135     A.U. after   11 cycles
 SCF Done:  E(UB+HF-LYP) =  -2026.27205246     A.U. after   11 cycles
 Optimization completed.
    -- Stationary point found.
 Normal termination of Gaussian 03 at Fri Jun 17 17:11:17 2011.

 --------------------------------------------------------------------
 #N Geom=AllCheck Guess=Read SCRF=Check GenChk UB3LYP/6-311+G(d) Freq
 --------------------------------------------------------------------

 si7-c
 -----
 Redundant internal coordinates taken from checkpoint file:
 S9L-ne-d-01.chk
 Charge =  1 Multiplicity = 2

                         Standard orientation:
 ---------------------------------------------------------------------
 Center     Atomic     Atomic              Coordinates (Angstroms)
 Number     Number      Type              X           Y           Z
 ---------------------------------------------------------------------
    1         14             0        0.000000    2.060932    0.764385
    2         14             0        0.000000    0.000000    1.953407
    3         14             0        0.000000   -2.060932    0.764385
    4         14             0        0.000000   -1.445220   -1.622849
    5         14             0        0.000000    1.445220   -1.622849
    6         14             0       -1.327207    0.000000   -0.118240
    7         14             0        1.327207    0.000000   -0.118240
 ---------------------------------------------------------------------

 SCF Done:  E(UB+HF-LYP) =  -2026.27205246     A.U. after    1 cycles

 The electronic state is 2-A1.
 Alpha  occ. eigenvalues --  -66.30288 -66.30282 -66.30282 -66.30240 -66.30240
 Alpha  occ. eigenvalues --  -66.29182 -66.29182  -5.47281  -5.47055  -5.47054
 Alpha  occ. eigenvalues --   -5.46939  -5.46937  -5.46263  -5.46255  -3.83237
 Alpha  occ. eigenvalues --   -3.83130  -3.82994  -3.82994  -3.82833  -3.82767
 Alpha  occ. eigenvalues --   -3.82765  -3.82763  -3.82763  -3.82745  -3.82743
 Alpha  occ. eigenvalues --   -3.82650  -3.82646  -3.82570  -3.82567  -3.82164
 Alpha  occ. eigenvalues --   -3.82150  -3.81955  -3.81954  -3.81945  -3.81944
 Alpha  occ. eigenvalues --   -0.85578  -0.72316  -0.70809  -0.63072  -0.57321
 Alpha  occ. eigenvalues --   -0.56157  -0.53476  -0.44910  -0.44634  -0.42839
 Alpha  occ. eigenvalues --   -0.41579  -0.41308  -0.41260  -0.39427
 Alpha virt. eigenvalues --   -0.28037  -0.25624  -0.23572  -0.23513  -0.20468
 Alpha virt. eigenvalues --   -0.19440  -0.19032  -0.18678  -0.16119  -0.15756
 Alpha virt. eigenvalues --   -0.14449  -0.13892  -0.13064  -0.08846  -0.07188

  Beta  occ. eigenvalues --  -66.30236 -66.30236 -66.30160 -66.30160 -66.30047
  Beta  occ. eigenvalues --  -66.29183 -66.29182  -5.47004  -5.47002  -5.46994
  Beta  occ. eigenvalues --   -5.46862  -5.46860  -5.46264  -5.46257  -3.82961
  Beta  occ. eigenvalues --   -3.82961  -3.82936  -3.82721  -3.82721  -3.82713
  Beta  occ. eigenvalues --   -3.82705  -3.82668  -3.82626  -3.82588  -3.82583
  Beta  occ. eigenvalues --   -3.82549  -3.82546  -3.82417  -3.82417  -3.82171
  Beta  occ. eigenvalues --   -3.82158  -3.81967  -3.81966  -3.81927  -3.81926
  Beta  occ. eigenvalues --   -0.85213  -0.71812  -0.69930  -0.63021  -0.56670
  Beta  occ. eigenvalues --   -0.55731  -0.51072  -0.44839  -0.44377  -0.42681
  Beta  occ. eigenvalues --   -0.41385  -0.40734  -0.40382
  Beta virt. eigenvalues --   -0.32854  -0.27879  -0.25428  -0.23040  -0.22939
  Beta virt. eigenvalues --   -0.19941  -0.19117  -0.18443  -0.18014  -0.15770
  Beta virt. eigenvalues --   -0.15231  -0.13815  -0.13449  -0.12623  -0.08690

 Mulliken atomic charges:
              1
     1  Si   0.254001
     2  Si   0.218748
     3  Si   0.254001
     4  Si   0.396224
     5  Si   0.396224
     6  Si  -0.259598
     7  Si  -0.259598
 Sum of Mulliken charges=   1.00000

 Dipole moment (field-independent basis, Debye):
    X=     0.0000    Y=     0.0000    Z=     0.5706  Tot=     0.5706
 Quadrupole moment (field-independent basis, Debye-Ang):
   XX=   -80.0186   YY=   -73.0398   ZZ=   -73.8481
   XY=     0.0000   XZ=     0.0000   YZ=     0.0000

  Exact polarizability: 143.626   0.000 223.901   0.000   0.000 201.690
 Approx polarizability: 435.981   0.000 709.766   0.000   0.000 600.215

                     1                      2                      3
                    A2                     B1                     A1
 Frequencies --   112.2389               116.4526               145.1967
 Red. masses --    27.9769                27.9769                27.9769
 Frc consts  --     0.2077                 0.2235                 0.3475
 IR Inten    --     0.0000                 0.1439                 0.1149

                     4                      5                      6
                    B2                     B1                     B2
 Frequencies --   225.0343               228.5096               236.7137
 Red. masses --    27.9769                27.9769                27.9769
 Frc consts  --     0.8347                 0.8607                 0.9236
 IR Inten    --     0.0001                 0.2898                 2.6687

                     7                      8                      9
                    A1                     A1                     A2
 Frequencies --   256.5171               292.0931               310.0422
 Red. masses --    27.9769                27.9769                27.9769
 Frc consts  --     1.0846                 1.4063                 1.5845
 IR Inten    --     3.7386                 3.1647                 0.0000

                    10                     11                     12
                    B1                     A1                     B2
 Frequencies --   317.5565               340.3466               379.6165
 Red. masses --    27.9769                27.9769                27.9769
 Frc consts  --     1.6622                 1.9094                 2.3754
 IR Inten    --     0.0011                 2.4982                25.0392

                    13                     14                     15
                    A1                     B2                     A1
 Frequencies --   388.7693               391.0183               409.4664
 Red. masses --    27.9769                27.9769                27.9769
 Frc consts  --     2.4913                 2.5203                 2.7637
 IR Inten    --    18.0582                 8.0176                 1.0476

 - Thermochemistry -
 -------------------
 Temperature   298.150 Kelvin.  Pressure   1.00000 Atm.
 Atom  1 has atomic number 14 and mass  27.97693

 Molecular mass:   195.83850 amu.
 Principal axes and moments of inertia in atomic units:
                           1         2         3
     EIGENVALUES --  1378.978551618.016442293.05566
           X            0.00000   0.00000   1.00000
           Y            1.00000   0.00000   0.00000
           Z            0.00000   1.00000   0.00000
 This molecule is an asymmetric top.
 Rotational symmetry number  2.
 Warning -- assumption of classical behavior for rotation
           may cause significant error
 Rotational temperatures (Kelvin)      0.06281     0.05353     0.03777
 Rotational constants (GHZ):           1.30875     1.11540     0.78705
 Zero-point vibrational energy      24820.0 (Joules/Mol)
                                    5.93211 (Kcal/Mol)
 Warning -- explicit consideration of  15 degrees of freedom as
           vibrations may cause significant error
 Vibrational temperatures:    161.49   167.55   208.91   323.77   328.77
          (Kelvin)            340.58   369.07   420.26   446.08   456.89
                              489.68   546.18   559.35   562.59   589.13

 Zero-point correction=                           0.009453 (Hartree/Particle)
 Thermal correction to Energy=                    0.019253
 Thermal correction to Enthalpy=                  0.020197
 Thermal correction to Gibbs Free Energy=        -0.026133
 Sum of electronic and zero-point Energies=          -2026.262599
 Sum of electronic and thermal Energies=             -2026.252800
 Sum of electronic and thermal Enthalpies=           -2026.251856
 Sum of electronic and thermal Free Energies=        -2026.298185

                     E (Thermal)             CV                S
                      KCal/Mol        Cal/Mol-Kelvin    Cal/Mol-Kelvin
 Total                   12.081             31.406             97.509
 Electronic               0.000              0.000              1.377
 Translational            0.889              2.981             41.722
 Rotational               0.889              2.981             28.638
 Vibrational             10.304             25.444             25.772
 Vibration  1             0.607              1.939              3.230
 Vibration  2             0.608              1.936              3.158
 Vibration  3             0.617              1.908              2.734
 Vibration  4             0.650              1.803              1.918
 Vibration  5             0.651              1.798              1.891
 Vibration  6             0.656              1.785              1.827
 Vibration  7             0.666              1.752              1.685
 Vibration  8             0.687              1.688              1.462
 Vibration  9             0.699              1.655              1.362
 Vibration 10             0.704              1.640              1.323
 Vibration 11             0.720              1.595              1.211
 Vibration 12             0.750              1.514              1.041
 Vibration 13             0.757              1.494              1.005
 Vibration 14             0.759              1.489              0.996
 Vibration 15             0.774              1.450              0.929

 Normal termination of Gaussian 03 at Fri Jun 17 17:17:48 2011.
