 Gaussian 03, Revision E.01,

 --------------------------------------
 # hf/6-311G(d) freq scfcyc=500 scf=xqc
 --------------------------------------

 -----
 si8-c
 -----
 Symbolic Z-matrix:
 Charge =  1 Multiplicity = 2

 SCF Done:  E(UHF) =  -2311.07291586     A.U. after   25 cycles
 Normal termination of Gaussian 03 at Fri Jun 17 16:44:37 2011.
 Gaussian 03:  AM64L-G03RevE.01 11-Sep-2007

 ----------------------------------------------------------------------
 # b3lyp/6-311+G(d) opt=(readfc,noeigentest,maxcycle=500) freq scfcyc=5
 00 optcyc=500 scf=xqc geom=allcheck guess=read
 ----------------------------------------------------------------------

 -----
 No Z-matrix found on checkpoint file.
 Cartesian coordinates read from the checkpoint file:
 S9L-ne-d-01.chk
 Charge =  1 Multiplicity = 2

 SCF Done:  E(UB+HF-LYP) =  -2315.78511970     A.U. after   16 cycles
 SCF Done:  E(UB+HF-LYP) =  -2315.78510198     A.U. after   13 cycles
 SCF Done:  E(UB+HF-LYP) =  -2315.78512031     A.U. after   13 cycles
 SCF Done:  E(UB+HF-LYP) =  -2315.78511309     A.U. after   12 cycles
 SCF Done:  E(UB+HF-LYP) =  -2315.78518006     A.U. after   13 cycles
 SCF Done:  E(UB+HF-LYP) =  -2315.78521223     A.U. after   13 cycles
 SCF Done:  E(UB+HF-LYP) =  -2315.78520978     A.U. after   11 cycles
 SCF Done:  E(UB+HF-LYP) =  -2315.78513344     A.U. after   13 cycles
 SCF Done:  E(UB+HF-LYP) =  -2315.78522195     A.U. after   13 cycles
 SCF Done:  E(UB+HF-LYP) =  -2315.78522309     A.U. after   10 cycles
 SCF Done:  E(UB+HF-LYP) =  -2315.78522334     A.U. after   10 cycles
 Optimization completed.
    -- Stationary point found.
 Normal termination of Gaussian 03 at Fri Jun 17 16:59:03 2011.

 --------------------------------------------------------------------
 #N Geom=AllCheck Guess=Read SCRF=Check GenChk UB3LYP/6-311+G(d) Freq
 --------------------------------------------------------------------

 si8-c
 -----
 Redundant internal coordinates taken from checkpoint file:
 S9L-ne-d-01.chk
 Charge =  1 Multiplicity = 2

                         Standard orientation:
 ---------------------------------------------------------------------
 Center     Atomic     Atomic              Coordinates (Angstroms)
 Number     Number      Type              X           Y           Z
 ---------------------------------------------------------------------
    1         14             0        0.000000    0.000000   -2.551260
    2         14             0       -1.347771    0.000000   -0.520106
    3         14             0        0.000000    1.232794    1.200956
    4         14             0        0.000000   -1.232794    1.200956
    5         14             0        0.000000    0.000000    3.291109
    6         14             0        0.000000   -2.111764   -1.050775
    7         14             0        1.347771    0.000000   -0.520106
    8         14             0        0.000000    2.111764   -1.050775
 ---------------------------------------------------------------------

 SCF Done:  E(UB+HF-LYP) =  -2315.78522334     A.U. after    1 cycles

 The electronic state is 2-B1.
 Alpha  occ. eigenvalues --  -66.30027 -66.30027 -66.29079 -66.29079 -66.28965
 Alpha  occ. eigenvalues --  -66.28666 -66.28391 -66.28390  -5.46707  -5.46706
 Alpha  occ. eigenvalues --   -5.46123  -5.46118  -5.45580  -5.45491  -5.45482
 Alpha  occ. eigenvalues --   -5.45459  -3.82605  -3.82605  -3.82370  -3.82370
 Alpha  occ. eigenvalues --   -3.82350  -3.82350  -3.82078  -3.82075  -3.81898
 Alpha  occ. eigenvalues --   -3.81866  -3.81701  -3.81694  -3.81544  -3.81379
 Alpha  occ. eigenvalues --   -3.81368  -3.81363  -3.81319  -3.81225  -3.81213
 Alpha  occ. eigenvalues --   -3.81193  -3.81192  -3.81161  -3.81154  -3.81092
 Alpha  occ. eigenvalues --   -0.85199  -0.73619  -0.71200  -0.63300  -0.62918
 Alpha  occ. eigenvalues --   -0.55720  -0.55549  -0.49524  -0.45399  -0.44335
 Alpha  occ. eigenvalues --   -0.43147  -0.42437  -0.40856  -0.40687  -0.39199
 Alpha  occ. eigenvalues --   -0.34768
 Alpha virt. eigenvalues --   -0.27000  -0.25252  -0.24156  -0.23504  -0.23500
 Alpha virt. eigenvalues --   -0.20364  -0.19212  -0.18193  -0.17494  -0.16181
 Alpha virt. eigenvalues --   -0.15345  -0.13526  -0.13084  -0.11069  -0.09088

  Beta  occ. eigenvalues --  -66.30030 -66.30030 -66.29078 -66.29078 -66.28737
  Beta  occ. eigenvalues --  -66.28603 -66.28345 -66.28344  -5.46710  -5.46709
  Beta  occ. eigenvalues --   -5.46124  -5.46118  -5.45433  -5.45425  -5.45397
  Beta  occ. eigenvalues --   -5.45352  -3.82607  -3.82607  -3.82377  -3.82377
  Beta  occ. eigenvalues --   -3.82356  -3.82356  -3.82058  -3.82055  -3.81902
  Beta  occ. eigenvalues --   -3.81871  -3.81704  -3.81698  -3.81332  -3.81321
  Beta  occ. eigenvalues --   -3.81226  -3.81192  -3.81153  -3.81153  -3.81104
  Beta  occ. eigenvalues --   -3.81091  -3.81089  -3.81062  -3.81048  -3.80763
  Beta  occ. eigenvalues --   -0.85070  -0.72890  -0.71223  -0.62562  -0.62040
  Beta  occ. eigenvalues --   -0.55618  -0.55404  -0.48672  -0.44441  -0.44284
  Beta  occ. eigenvalues --   -0.42826  -0.41930  -0.40724  -0.40670  -0.38802
  Beta virt. eigenvalues --   -0.28524  -0.26041  -0.24887  -0.23901  -0.23284
  Beta virt. eigenvalues --   -0.22102  -0.20235  -0.19091  -0.17376  -0.17293
  Beta virt. eigenvalues --   -0.16130  -0.15170  -0.13351  -0.12920  -0.10356

 Mulliken atomic charges:
              1
     1  Si   0.217532
     2  Si  -0.040403
     3  Si  -0.075911
     4  Si  -0.075911
     5  Si   0.658893
     6  Si   0.178102
     7  Si  -0.040403
     8  Si   0.178102
 Sum of Mulliken charges=   1.00000

 Dipole moment (field-independent basis, Debye):
    X=     0.0000    Y=     0.0000    Z=     0.2579  Tot=     0.2579
 Quadrupole moment (field-independent basis, Debye-Ang):
   XX=   -93.7654   YY=   -86.6842   ZZ=   -79.8312
   XY=     0.0000   XZ=     0.0000   YZ=     0.0000

  Exact polarizability: 159.594   0.000 224.783   0.000   0.000 315.550
 Approx polarizability: 466.236   0.000 697.194   0.000   0.000 996.808

                     1                      2                      3
                    B1                     B1                     B2
 Frequencies --    60.4821               103.4109               129.8409
 Red. masses --    27.9769                27.9769                27.9769
 Frc consts  --     0.0603                 0.1763                 0.2779
 IR Inten    --     0.1272                 0.0945                 0.7044

                     4                      5                      6
                    A2                     A1                     B2
 Frequencies --   135.9979               166.7560               215.7796
 Red. masses --    27.9769                27.9769                27.9769
 Frc consts  --     0.3049                 0.4584                 0.7675
 IR Inten    --     0.0000                 0.1325                 0.1147

                     7                      8                      9
                    B1                     B2                     A1
 Frequencies --   232.5690               250.3738               251.1371
 Red. masses --    27.9769                27.9769                27.9769
 Frc consts  --     0.8916                 1.0333                 1.0396
 IR Inten    --     0.0012                 0.8426                 6.3188

                    10                     11                     12
                    A1                     A1                     A2
 Frequencies --   293.9390               310.5470               315.6071
 Red. masses --    27.9769                27.9769                27.9769
 Frc consts  --     1.4242                 1.5897                 1.6419
 IR Inten    --     0.3153                 5.1605                 0.0000

                    13                     14                     15
                    B1                     B2                     A1
 Frequencies --   316.4187               329.3205               380.5832
 Red. masses --    27.9769                27.9769                27.9769
 Frc consts  --     1.6503                 1.7877                 2.3875
 IR Inten    --     0.5846                16.7961                11.0844

                    16                     17                     18
                    A1                     B2                     A1
 Frequencies --   397.5832               412.4168               429.2721
 Red. masses --    27.9769                27.9769                27.9769
 Frc consts  --     2.6056                 2.8036                 3.0375
 IR Inten    --     6.4193                24.5055                14.8975

 - Thermochemistry -
 -------------------
 Temperature   298.150 Kelvin.  Pressure   1.00000 Atm.
 Atom  1 has atomic number 14 and mass  27.97693

 Molecular mass:   223.81543 amu.
 Principal axes and moments of inertia in atomic units:
                           1         2         3
     EIGENVALUES --  1557.720032658.254193490.05193
           X            0.00000   0.00000   1.00000
           Y            0.00000   1.00000   0.00000
           Z            1.00000   0.00000   0.00000
 This molecule is an asymmetric top.
 Rotational symmetry number  2.
 Warning -- assumption of classical behavior for rotation
           may cause significant error
 Rotational temperatures (Kelvin)      0.05560     0.03258     0.02482
 Rotational constants (GHZ):           1.15858     0.67892     0.51711
 Zero-point vibrational energy      28303.9 (Joules/Mol)
                                    6.76478 (Kcal/Mol)
 Warning -- explicit consideration of  18 degrees of freedom as
           vibrations may cause significant error
 Vibrational temperatures:     87.02   148.79   186.81   195.67   239.92
          (Kelvin)            310.46   334.61   360.23   361.33   422.91
                              446.81   454.09   455.26   473.82   547.57
                              572.03   593.38   617.63

 Zero-point correction=                           0.010780 (Hartree/Particle)
 Thermal correction to Energy=                    0.022375
 Thermal correction to Enthalpy=                  0.023319
 Thermal correction to Gibbs Free Energy=        -0.027569
 Sum of electronic and zero-point Energies=          -2315.774443
 Sum of electronic and thermal Energies=             -2315.762848
 Sum of electronic and thermal Enthalpies=           -2315.761904
 Sum of electronic and thermal Free Energies=        -2315.812792

                     E (Thermal)             CV                S
                      KCal/Mol        Cal/Mol-Kelvin    Cal/Mol-Kelvin
 Total                   14.041             36.815            107.104
 Electronic               0.000              0.000              1.377
 Translational            0.889              2.981             42.120
 Rotational               0.889              2.981             29.670
 Vibrational             12.263             30.853             33.937
 Vibration  1             0.597              1.973              4.441
 Vibration  2             0.605              1.946              3.389
 Vibration  3             0.612              1.923              2.948
 Vibration  4             0.614              1.917              2.859
 Vibration  5             0.624              1.883              2.472
 Vibration  6             0.645              1.817              1.994
 Vibration  7             0.653              1.791              1.859
 Vibration  8             0.663              1.762              1.728
 Vibration  9             0.663              1.761              1.723
 Vibration 10             0.689              1.685              1.451
 Vibration 11             0.699              1.654              1.359
 Vibration 12             0.703              1.644              1.333
 Vibration 13             0.703              1.642              1.329
 Vibration 14             0.712              1.617              1.263
 Vibration 15             0.750              1.512              1.037
 Vibration 16             0.764              1.475              0.972
 Vibration 17             0.776              1.443              0.918
 Vibration 18             0.791              1.407              0.861

 Normal termination of Gaussian 03 at Fri Jun 17 17:08:39 2011.
