 Gaussian 03, Revision E.01,

 ----------------------------------------------------------------------
 # b3lyp/LANL2DZ opt=(calcall,noeigentest,maxcycle=500) scfcyc=500 scf=
 xqc
 ----------------------------------------------------------------------

 ------------------------
 si8-neu-singlet-isomer02
 ------------------------
 Symbolic Z-matrix:
 Charge =  0 Multiplicity = 1

 SCF Done:  E(RB+HF-LYP) =  -30.8107702361     A.U. after   14 cycles
 SCF Done:  E(RB+HF-LYP) =  -30.8211192002     A.U. after   14 cycles
 SCF Done:  E(RB+HF-LYP) =  -30.8309468059     A.U. after   14 cycles
 SCF Done:  E(RB+HF-LYP) =  -30.8358687065     A.U. after   14 cycles
 SCF Done:  E(RB+HF-LYP) =  -30.8370666215     A.U. after   14 cycles
 SCF Done:  E(RB+HF-LYP) =  -30.8370758637     A.U. after    9 cycles
 Optimization completed.
    -- Stationary point found.
 ******    1 imaginary frequencies (negative Signs) ******
    1 imaginary frequencies ignored.
 Normal termination of Gaussian 03 at Tue May  4 16:42:43 2010.

 ----------------------------------------------------------------------
 # b3lyp/6-311G(d) opt=(readfc,noeigentest,maxcycle=500) freq scfcyc=50
 0 optcyc=500 geom=allcheck guess=read scf=xqc
 ----------------------------------------------------------------------

 si8-neu-singlet-isomer02
 ------------------------
 Redundant internal coordinates taken from checkpoint file:
 S8-ne-s-02.chk
 Charge =  0 Multiplicity = 1

 SCF Done:  E(RB+HF-LYP) =  -2316.01153630     A.U. after   20 cycles
 SCF Done:  E(RB+HF-LYP) =  -2316.02083974     A.U. after   12 cycles
 SCF Done:  E(RB+HF-LYP) =  -2316.03079014     A.U. after   12 cycles
 SCF Done:  E(RB+HF-LYP) =  -2316.03623231     A.U. after   12 cycles
 SCF Done:  E(RB+HF-LYP) =  -2316.03811041     A.U. after   13 cycles
 SCF Done:  E(RB+HF-LYP) =  -2316.03821359     A.U. after   12 cycles
 SCF Done:  E(RB+HF-LYP) =  -2316.03821785     A.U. after    9 cycles
 Optimization completed.
 Normal termination of Gaussian 03 at Tue May  4 16:47:54 2010.

 -------------------------------------------------------------------
 #N Geom=AllCheck Guess=Read SCRF=Check GenChk RB3LYP/6-311G(d) Freq
 -------------------------------------------------------------------

 si8-neu-singlet-isomer02
 ------------------------
 Redundant internal coordinates taken from checkpoint file:
 S8-ne-s-02.chk
 Charge =  0 Multiplicity = 1

 SCF Done:  E(RB+HF-LYP) =  -2316.03821785     A.U. after    1 cycles
 Normal termination of Gaussian 03 at Tue May  4 16:50:46 2010.
 Gaussian 03:  AM64L-G03RevE.01 11-Sep-2007

 ----------------------------------------------------------------------
 # b3lyp/6-311+G(d) opt=(readfc,noeigentest,maxcycle=500) freq scfcyc=5
 00 optcyc=500 scf=xqc geom=allcheck guess=read
 ----------------------------------------------------------------------

 si8-neu-singlet-isomer02
 ------------------------
 Redundant internal coordinates taken from checkpoint file:
 S8-ne-s-02.chk
 Charge =  0 Multiplicity = 1

 SCF Done:  E(RB+HF-LYP) =  -2316.04227048     A.U. after   10 cycles
 SCF Done:  E(RB+HF-LYP) =  -2316.04228016     A.U. after   10 cycles
    -- Stationary point found.
 Normal termination of Gaussian 03 at Tue May  4 16:52:53 2010.

 --------------------------------------------------------------------
 #N Geom=AllCheck Guess=Read SCRF=Check GenChk RB3LYP/6-311+G(d) Freq
 --------------------------------------------------------------------

 si8-neu-singlet-isomer02
 ------------------------
 Redundant internal coordinates taken from checkpoint file:
 S8-ne-s-02.chk
 Charge =  0 Multiplicity = 1

                         Standard orientation:
 ---------------------------------------------------------------------
 Center     Atomic     Atomic              Coordinates (Angstroms)
 Number     Number      Type              X           Y           Z
 ---------------------------------------------------------------------
    1         14             0        0.668443    1.255513    1.458498
    2         14             0       -0.668443   -1.255513    1.458498
    3         14             0        0.668443    1.255513   -1.458498
    4         14             0       -0.668443   -1.255513   -1.458498
    5         14             0       -1.286783    0.575029    0.000000
    6         14             0        1.286783   -0.575029    0.000000
    7         14             0       -0.668443    2.770287    0.000000
    8         14             0        0.668443   -2.770287    0.000000
 ---------------------------------------------------------------------

 SCF Done:  E(RB+HF-LYP) =  -2316.04228016     A.U. after    1 cycles

 The electronic state is 1-AG.
 Alpha  occ. eigenvalues --  -66.13226 -66.13226 -66.13226 -66.13226 -66.12868
 Alpha  occ. eigenvalues --  -66.12867 -66.11158 -66.11158  -5.30113  -5.30107
 Alpha  occ. eigenvalues --   -5.30066  -5.30065  -5.30065  -5.30062  -5.28118
 Alpha  occ. eigenvalues --   -5.28117  -3.66058  -3.66052  -3.66014  -3.66012
 Alpha  occ. eigenvalues --   -3.66011  -3.66011  -3.65895  -3.65891  -3.65784
 Alpha  occ. eigenvalues --   -3.65783  -3.65776  -3.65776  -3.65680  -3.65675
 Alpha  occ. eigenvalues --   -3.65633  -3.65633  -3.65632  -3.65632  -3.63900
 Alpha  occ. eigenvalues --   -3.63900  -3.63875  -3.63875  -3.63793  -3.63793
 Alpha  occ. eigenvalues --   -0.68800  -0.59086  -0.51431  -0.50249  -0.46974
 Alpha  occ. eigenvalues --   -0.41131  -0.37595  -0.32920  -0.30441  -0.29783
 Alpha  occ. eigenvalues --   -0.28316  -0.26364  -0.26246  -0.23217  -0.22674
 Alpha  occ. eigenvalues --   -0.21262
 Alpha virt. eigenvalues --   -0.11769  -0.10845  -0.08797  -0.07141  -0.06492
 Alpha virt. eigenvalues --   -0.05964  -0.04624  -0.03933  -0.02341  -0.01773
 Alpha virt. eigenvalues --   -0.00868   0.00121   0.01682   0.02241   0.02591

 Mulliken atomic charges:
              1
     1  Si  -0.013155
     2  Si  -0.013155
     3  Si  -0.013155
     4  Si  -0.013155
     5  Si  -0.087839
     6  Si  -0.087839
     7  Si   0.114149
     8  Si   0.114149
 Sum of Mulliken charges=   0.00000

 Dipole moment (field-independent basis, Debye):
    X=     0.0000    Y=     0.0000    Z=     0.0000  Tot=     0.0000
 Quadrupole moment (field-independent basis, Debye-Ang):
   XX=  -104.0428   YY=  -111.2410   ZZ=  -107.4287
   XY=     1.4536   XZ=     0.0000   YZ=     0.0000

  Exact polarizability: 196.774 -12.808 330.528   0.000   0.000 228.407
 Approx polarizability: 550.575 -17.9111018.641   0.000   0.000 686.646

                     1                      2                      3
                    AU                     AG                     BU
 Frequencies --    45.5315                80.9518               153.6879
 Red. masses --    27.9769                27.9769                27.9769
 Frc consts  --     0.0342                 0.1080                 0.3893
 IR Inten    --     0.4559                 0.0000                 0.2582

                     4                      5                      6
                    AU                     BU                     AG
 Frequencies --   155.2636               226.0259               235.9839
 Red. masses --    27.9769                27.9769                27.9769
 Frc consts  --     0.3974                 0.8421                 0.9179
 IR Inten    --     0.1277                 0.3545                 0.0000

                     7                      8                      9
                    BG                     AU                     BU
 Frequencies --   240.0209               264.9431               282.1038
 Red. masses --    27.9769                27.9769                27.9769
 Frc consts  --     0.9496                 1.1571                 1.3118
 IR Inten    --     0.0000                 0.0597                 3.0261

                    10                     11                     12
                    AG                     BG                     AG
 Frequencies --   282.6096               287.2963               300.9143
 Red. masses --    27.9769                27.9769                27.9769
 Frc consts  --     1.3165                 1.3605                 1.4926
 IR Inten    --     0.0000                 0.0000                 0.0000

                    13                     14                     15
                    BG                     BU                     AU
 Frequencies --   312.5992               340.0130               365.4067
 Red. masses --    27.9769                27.9769                27.9769
 Frc consts  --     1.6107                 1.9056                 2.2009
 IR Inten    --     0.0000                 3.0955                 8.5804

                    16                     17                     18
                    AG                     AG                     BU
 Frequencies --   373.2957               499.2499               503.5200
 Red. masses --    27.9769                27.9769                27.9769
 Frc consts  --     2.2970                 4.1085                 4.1791
 IR Inten    --     0.0000                 0.0000                11.1407

 - Thermochemistry -
 -------------------
 Temperature   298.150 Kelvin.  Pressure   1.00000 Atm.
 Atom  1 has atomic number 14 and mass  27.97693

 Molecular mass:   223.81543 amu.
 Principal axes and moments of inertia in atomic units:
                           1         2         3
     EIGENVALUES --  1428.627172828.187223099.75782
           X           -0.10986   0.00000   0.99395
           Y            0.99395   0.00000   0.10986
           Z            0.00000   1.00000   0.00000
 This molecule is an asymmetric top.
 Rotational symmetry number  2.
 Warning -- assumption of classical behavior for rotation
           may cause significant error
 Rotational temperatures (Kelvin)      0.06063     0.03063     0.02794
 Rotational constants (GHZ):           1.26327     0.63813     0.58222
 Zero-point vibrational energy      29604.1 (Joules/Mol)
                                    7.07555 (Kcal/Mol)
 Warning -- explicit consideration of  18 degrees of freedom as
           vibrations may cause significant error
 Vibrational temperatures:     65.51   116.47   221.12   223.39   325.20
          (Kelvin)            339.53   345.34   381.19   405.88   406.61
                              413.35   432.95   449.76   489.20   525.74
                              537.09   718.31   724.45

 Zero-point correction=                           0.011276 (Hartree/Particle)
 Thermal correction to Energy=                    0.022634
 Thermal correction to Enthalpy=                  0.023578
 Thermal correction to Gibbs Free Energy=        -0.026263
 Sum of electronic and zero-point Energies=          -2316.031005
 Sum of electronic and thermal Energies=             -2316.019646
 Sum of electronic and thermal Enthalpies=           -2316.018702
 Sum of electronic and thermal Free Energies=        -2316.068544

                     E (Thermal)             CV                S
                      KCal/Mol        Cal/Mol-Kelvin    Cal/Mol-Kelvin
 Total                   14.203             36.393            104.901
 Electronic               0.000              0.000              0.000
 Translational            0.889              2.981             42.120
 Rotational               0.889              2.981             29.528
 Vibrational             12.426             30.432             33.254
 Vibration  1             0.595              1.979              5.003
 Vibration  2             0.600              1.962              3.868
 Vibration  3             0.619              1.899              2.626
 Vibration  4             0.620              1.897              2.607
 Vibration  5             0.650              1.801              1.910
 Vibration  6             0.655              1.786              1.833
 Vibration  7             0.657              1.779              1.803
 Vibration  8             0.671              1.737              1.629
 Vibration  9             0.681              1.707              1.521
 Vibration 10             0.682              1.706              1.518
 Vibration 11             0.684              1.697              1.490
 Vibration 12             0.693              1.672              1.412
 Vibration 13             0.701              1.650              1.349
 Vibration 14             0.720              1.596              1.212
 Vibration 15             0.739              1.543              1.099
 Vibration 16             0.745              1.527              1.066
 Vibration 17             0.855              1.252              0.660
 Vibration 18             0.859              1.242              0.649

 Optimization completed.
    -- Stationary point found.
 Normal termination of Gaussian 03 at Tue May  4 16:57:19 2010.
