 Gaussian 03, Revision E.01,

 ----------------------------------------------------------------------
 # b3lyp/LANL2DZ opt=(calcall,noeigentest,maxcycle=500) scfcyc=500 scf=
 xqc
 ----------------------------------------------------------------------

 --------
 si8-an-d
 --------
 Symbolic Z-matrix:
 Charge = -1 Multiplicity = 2

 SCF Done:  E(UB+HF-LYP) =  -30.9430285516     A.U. after   20 cycles
 SCF Done:  E(UB+HF-LYP) =  -30.9519882018     A.U. after   17 cycles
 SCF Done:  E(UB+HF-LYP) =  -30.9605056618     A.U. after   18 cycles
 SCF Done:  E(UB+HF-LYP) =  -30.9646493479     A.U. after   18 cycles
 SCF Done:  E(UB+HF-LYP) =  -30.9659302145     A.U. after   21 cycles
 SCF Done:  E(UB+HF-LYP) =  -30.9659350079     A.U. after   13 cycles
 Optimization completed.
    -- Stationary point found.
 Normal termination of Gaussian 03 at Wed Apr 13 19:26:45 2011.

 ----------------------------------------------------------------------
 # b3lyp/6-31G(d) opt=(readfc,noeigentest,maxcycle=500) freq scfcyc=500
  optcyc=500 geom=allcheck guess=read scf=xqc
 ----------------------------------------------------------------------

 si8-an-d
 --------
 Redundant internal coordinates taken from checkpoint file:
 S9L-ne-d-01.chk
 Charge = -1 Multiplicity = 2

 SCF Done:  E(UB+HF-LYP) =  -2315.94304446     A.U. after   25 cycles
 SCF Done:  E(UB+HF-LYP) =  -2315.95042234     A.U. after   17 cycles
 SCF Done:  E(UB+HF-LYP) =  -2315.95781108     A.U. after   16 cycles
 SCF Done:  E(UB+HF-LYP) =  -2315.96101218     A.U. after   16 cycles
 SCF Done:  E(UB+HF-LYP) =  -2315.96312353     A.U. after   18 cycles
 SCF Done:  E(UB+HF-LYP) =  -2315.96339407     A.U. after   18 cycles
 SCF Done:  E(UB+HF-LYP) =  -2315.96340138     A.U. after   11 cycles
 Optimization completed.
 Normal termination of Gaussian 03 at Wed Apr 13 19:32:10 2011.

 ------------------------------------------------------------------
 #N Geom=AllCheck Guess=Read SCRF=Check GenChk UB3LYP/6-31G(d) Freq
 ------------------------------------------------------------------

 si8-an-d
 --------
 Redundant internal coordinates taken from checkpoint file:
 S9L-ne-d-01.chk
 Charge = -1 Multiplicity = 2

 SCF Done:  E(UB+HF-LYP) =  -2315.96340138     A.U. after    1 cycles
 ******    1 imaginary frequencies (negative Signs) ******
    1 imaginary frequencies ignored.
 Normal termination of Gaussian 03 at Wed Apr 13 19:34:44 2011.

 ----------------------------------------------------------------------
 # b3lyp/6-311G(d) opt=(readfc,noeigentest,maxcycle=500) freq scfcyc=50
 0 optcyc=500 geom=allcheck guess=read scf=xqc
 ----------------------------------------------------------------------

 si8-an-d
 --------
 Redundant internal coordinates taken from checkpoint file:
 S9L-ne-d-01.chk
 Charge = -1 Multiplicity = 2

 SCF Done:  E(UB+HF-LYP) =  -2316.13321654     A.U. after   13 cycles
 SCF Done:  E(UB+HF-LYP) =  -2316.13322434     A.U. after   11 cycles
 Normal termination of Gaussian 03 at Wed Apr 13 19:36:42 2011.

 -------------------------------------------------------------------
 #N Geom=AllCheck Guess=Read SCRF=Check GenChk UB3LYP/6-311G(d) Freq
 -------------------------------------------------------------------

 si8-an-d
 --------
 Redundant internal coordinates taken from checkpoint file:
 S9L-ne-d-01.chk
 Charge = -1 Multiplicity = 2

 SCF Done:  E(UB+HF-LYP) =  -2316.13322434     A.U. after    1 cycles
 Normal termination of Gaussian 03 at Wed Apr 13 19:42:57 2011.
 Gaussian 03:  AM64L-G03RevE.01 11-Sep-2007

 ----------------------------------------------------------------------
 # b3lyp/6-311+G(d) opt=(readfc,noeigentest,maxcycle=500) freq scfcyc=5
 00 optcyc=500 scf=xqc geom=allcheck guess=read
 ----------------------------------------------------------------------

 si8-an-d
 --------
 Redundant internal coordinates taken from checkpoint file:
 S9L-ne-d-01.chk
 Charge = -1 Multiplicity = 2

 SCF Done:  E(UB+HF-LYP) =  -2316.13859312     A.U. after   14 cycles
 SCF Done:  E(UB+HF-LYP) =  -2316.13859621     A.U. after   13 cycles
    -- Stationary point found.
 Normal termination of Gaussian 03 at Wed Apr 13 19:45:39 2011.

                         Standard orientation:
 ---------------------------------------------------------------------
 Center     Atomic     Atomic              Coordinates (Angstroms)
 Number     Number      Type              X           Y           Z
 ---------------------------------------------------------------------
    1         14             0        0.000000    1.997651   -1.396234
    2         14             0       -1.851169    0.000000    1.493352
    3         14             0        1.309419    0.000000   -1.028139
    4         14             0        0.000000   -1.427435    0.931020
    5         14             0        0.000000    1.427435    0.931020
    6         14             0       -1.309419    0.000000   -1.028139
    7         14             0        0.000000   -1.997651   -1.396234
    8         14             0        1.851169    0.000000    1.493352
 ---------------------------------------------------------------------

 SCF Done:  E(UB+HF-LYP) =  -2316.13859621     A.U. after    1 cycles

 The electronic state is 2-B1.
 Alpha  occ. eigenvalues --  -65.97441 -65.97441 -65.96936 -65.96936 -65.96513
 Alpha  occ. eigenvalues --  -65.96513 -65.95748 -65.95748  -5.14451  -5.14446
 Alpha  occ. eigenvalues --   -5.14031  -5.14027  -5.13476  -5.13475  -5.12763
 Alpha  occ. eigenvalues --   -5.12763  -3.50339  -3.50327  -3.50302  -3.50296
 Alpha  occ. eigenvalues --   -3.50054  -3.50052  -3.49996  -3.49992  -3.49770
 Alpha  occ. eigenvalues --   -3.49769  -3.49652  -3.49649  -3.49535  -3.49534
 Alpha  occ. eigenvalues --   -3.49134  -3.49134  -3.49084  -3.49084  -3.48606
 Alpha  occ. eigenvalues --   -3.48606  -3.48503  -3.48503  -3.48444  -3.48444
 Alpha  occ. eigenvalues --   -0.52429  -0.39901  -0.39434  -0.38055  -0.25618
 Alpha  occ. eigenvalues --   -0.25376  -0.24754  -0.20477  -0.17056  -0.16427
 Alpha  occ. eigenvalues --   -0.09817  -0.09813  -0.09719  -0.09061  -0.08051
 Alpha  occ. eigenvalues --   -0.07526  -0.06451
 Alpha virt. eigenvalues --    0.04325   0.04922   0.05709   0.08198   0.08491
 Alpha virt. eigenvalues --    0.08762   0.09356   0.11338   0.11490   0.11493
 Alpha virt. eigenvalues --    0.12236   0.12466   0.13840   0.14008   0.14222

  Beta  occ. eigenvalues --  -65.97405 -65.97405 -65.96914 -65.96914 -65.96406
  Beta  occ. eigenvalues --  -65.96406 -65.95723 -65.95723  -5.14417  -5.14412
  Beta  occ. eigenvalues --   -5.14011  -5.14007  -5.13368  -5.13368  -5.12738
  Beta  occ. eigenvalues --   -5.12737  -3.50332  -3.50321  -3.50145  -3.50139
  Beta  occ. eigenvalues --   -3.50043  -3.50041  -3.49990  -3.49985  -3.49674
  Beta  occ. eigenvalues --   -3.49674  -3.49648  -3.49646  -3.49192  -3.49191
  Beta  occ. eigenvalues --   -3.49075  -3.49074  -3.48996  -3.48996  -3.48508
  Beta  occ. eigenvalues --   -3.48508  -3.48499  -3.48499  -3.48431  -3.48431
  Beta  occ. eigenvalues --   -0.52082  -0.39324  -0.39214  -0.36976  -0.25294
  Beta  occ. eigenvalues --   -0.24680  -0.24033  -0.20021  -0.15926  -0.15532
  Beta  occ. eigenvalues --   -0.09740  -0.09678  -0.09481  -0.08626  -0.07870
  Beta  occ. eigenvalues --   -0.06976
  Beta virt. eigenvalues --   -0.01083   0.04944   0.05625   0.05844   0.08342
  Beta virt. eigenvalues --    0.08577   0.08884   0.09493   0.11511   0.11567
  Beta virt. eigenvalues --    0.11603   0.12364   0.12515   0.13945   0.14052

 Mulliken atomic charges:
              1
     1  Si  -0.448227
     2  Si  -0.566683
     3  Si   0.089332
     4  Si   0.425578
     5  Si   0.425578
     6  Si   0.089332
     7  Si  -0.448227
     8  Si  -0.566683
 Sum of Mulliken charges=  -1.00000

 Dipole moment (field-independent basis, Debye):
    X=     0.0000    Y=     0.0000    Z=     0.1888  Tot=     0.1888
 Quadrupole moment (field-independent basis, Debye-Ang):
   XX=  -127.1820   YY=  -128.9383   ZZ=  -129.0321
   XY=     0.0000   XZ=     0.0000   YZ=     0.0000

  Exact polarizability: 280.188   0.000 294.139   0.000   0.000 292.214
 Approx polarizability: 745.776   0.000 797.869   0.000   0.000 756.631

 ******    1 imaginary frequencies (negative Signs) ******

                     1                      2                      3
                    B2                     A1                     A2
 Frequencies --   -15.7479               135.9939               136.2640
 Red. masses --    27.9769                27.9769                27.9769
 Frc consts  --     0.0041                 0.3049                 0.3061
 IR Inten    --     2.9392                 0.0096                 0.0000

                     4                      5                      6
                    B1                     A1                     B1
 Frequencies --   204.4832               229.7472               244.3743
 Red. masses --    27.9769                27.9769                27.9769
 Frc consts  --     0.6892                 0.8701                 0.9844
 IR Inten    --     0.2666                 0.0199                 0.8921

                     7                      8                      9
                    A1                     B1                     B2
 Frequencies --   250.6494               258.0035               260.8883
 Red. masses --    27.9769                27.9769                27.9769
 Frc consts  --     1.0356                 1.0972                 1.1219
 IR Inten    --     0.2100                 0.8773                 1.5217

                    10                     11                     12
                    A2                     A1                     A1
 Frequencies --   268.5261               281.3728               309.8952
 Red. masses --    27.9769                27.9769                27.9769
 Frc consts  --     1.1886                 1.3050                 1.5830
 IR Inten    --     0.0000                 0.0775                 0.3710

                    13                     14                     15
                    A2                     A1                     B2
 Frequencies --   328.0042               377.6519               381.5748
 Red. masses --    27.9769                27.9769                27.9769
 Frc consts  --     1.7734                 2.3509                 2.4000
 IR Inten    --     0.0000                 0.0003                 0.0011

                    16                     17                     18
                    B2                     B1                     A1
 Frequencies --   412.6837               415.2633               441.4291
 Red. masses --    27.9769                27.9769                27.9769
 Frc consts  --     2.8073                 2.8425                 3.2120
 IR Inten    --     0.9338                 0.2598                 0.0424

 - Thermochemistry -
 -------------------
 Temperature   298.150 Kelvin.  Pressure   1.00000 Atm.
 Atom  1 has atomic number 14 and mass  27.97693

 Molecular mass:   223.81543 amu.
 Principal axes and moments of inertia in atomic units:
                           1         2         3
     EIGENVALUES --  2231.849042246.886612424.07696
           X            0.00000   0.00000   1.00000
           Y            0.00000   1.00000   0.00000
           Z            1.00000   0.00000   0.00000
 This molecule is an asymmetric top.
 Rotational symmetry number  2.
 Warning -- assumption of classical behavior for rotation
           may cause significant error
 Rotational temperatures (Kelvin)      0.03881     0.03855     0.03573
 Rotational constants (GHZ):           0.80863     0.80322     0.74451
    1 imaginary frequencies ignored.
 Zero-point vibrational energy      29528.6 (Joules/Mol)
                                    7.05752 (Kcal/Mol)
 Warning -- explicit consideration of  17 degrees of freedom as
           vibrations may cause significant error
 Vibrational temperatures:    195.66   196.05   294.21   330.55   351.60
          (Kelvin)            360.63   371.21   375.36   386.35   404.83
                              445.87   471.92   543.36   549.00   593.76
                              597.47   635.12

 Zero-point correction=                           0.011247 (Hartree/Particle)
 Thermal correction to Energy=                    0.021633
 Thermal correction to Enthalpy=                  0.022577
 Thermal correction to Gibbs Free Energy=        -0.024938
 Sum of electronic and zero-point Energies=          -2316.127349
 Sum of electronic and thermal Energies=             -2316.116963
 Sum of electronic and thermal Enthalpies=           -2316.116019
 Sum of electronic and thermal Free Energies=        -2316.163534

                     E (Thermal)             CV                S
                      KCal/Mol        Cal/Mol-Kelvin    Cal/Mol-Kelvin
 Total                   13.575             34.453            100.004
 Electronic               0.000              0.000              1.377
 Translational            0.889              2.981             42.120
 Rotational               0.889              2.981             29.498
 Vibrational             11.797             28.491             27.009
 Vibration  1             0.614              1.917              2.859
 Vibration  2             0.614              1.917              2.856
 Vibration  3             0.640              1.834              2.092
 Vibration  4             0.652              1.796              1.881
 Vibration  5             0.660              1.772              1.771
 Vibration  6             0.663              1.762              1.726
 Vibration  7             0.667              1.749              1.675
 Vibration  8             0.669              1.744              1.656
 Vibration  9             0.673              1.731              1.606
 Vibration 10             0.681              1.708              1.525
 Vibration 11             0.699              1.655              1.363
 Vibration 12             0.711              1.620              1.270
 Vibration 13             0.748              1.518              1.049
 Vibration 14             0.751              1.509              1.033
 Vibration 15             0.776              1.443              0.917
 Vibration 16             0.779              1.437              0.908
 Vibration 17             0.801              1.380              0.822

 Optimization completed.
    -- Stationary point found.
 Normal termination of Gaussian 03 at Wed Apr 13 19:56:14 2011.
