 Gaussian 03, Revision E.01,

 ----------------------------------------------------------------------
 # b3lyp/LANL2DZ opt=(calcall,noeigentest,maxcycle=500) scfcyc=500 scf=
 xqc
 ----------------------------------------------------------------------

 -----
 si9-n
 -----
 Symbolic Z-matrix:
 Charge =  0 Multiplicity = 1

 SCF Done:  E(RB+HF-LYP) =  -34.6961601968     A.U. after   19 cycles
 SCF Done:  E(RB+HF-LYP) =  -34.7085894934     A.U. after   18 cycles
 SCF Done:  E(RB+HF-LYP) =  -34.7198739331     A.U. after   18 cycles
 SCF Done:  E(RB+HF-LYP) =  -34.7247525360     A.U. after   18 cycles
 SCF Done:  E(RB+HF-LYP) =  -34.7275653412     A.U. after   17 cycles
 SCF Done:  E(RB+HF-LYP) =  -34.7303567888     A.U. after   19 cycles
 SCF Done:  E(RB+HF-LYP) =  -34.7313980109     A.U. after   17 cycles
 SCF Done:  E(RB+HF-LYP) =  -34.7319063886     A.U. after   18 cycles
 SCF Done:  E(RB+HF-LYP) =  -34.7320704177     A.U. after   20 cycles
 SCF Done:  E(RB+HF-LYP) =  -34.7320837419     A.U. after   16 cycles
 Optimization completed on the basis of negligible forces.
    -- Stationary point found.
 Normal termination of Gaussian 03 at Mon Apr  4 16:15:02 2011.

 ----------------------------------------------------------------------
 # b3lyp/6-31G(d) opt=(readfc,noeigentest,maxcycle=500) freq scfcyc=500
  optcyc=500 geom=allcheck guess=read scf=xqc
 ----------------------------------------------------------------------

 si9-n
 -----
 Redundant internal coordinates taken from checkpoint file:
 S9L-ne-d-01.chk
 Charge =  0 Multiplicity = 1

 Optimization completed.
 Normal termination of Gaussian 03 at Mon Apr  4 16:34:39 2011.

 ------------------------------------------------------------------
 #N Geom=AllCheck Guess=Read SCRF=Check GenChk RB3LYP/6-31G(d) Freq
 ------------------------------------------------------------------

 si9-n
 -----
 Redundant internal coordinates taken from checkpoint file:
 S9L-ne-d-01.chk
 Charge =  0 Multiplicity = 1

 ******    1 imaginary frequencies (negative Signs) ******
    1 imaginary frequencies ignored.
 Normal termination of Gaussian 03 at Mon Apr  4 16:39:31 2011.

 ----------------------------------------------------------------------
 # b3lyp/6-311G(d) opt=(readfc,noeigentest,maxcycle=500) freq scfcyc=50
 0 optcyc=500 geom=allcheck guess=read scf=xqc
 ----------------------------------------------------------------------

 si9-n
 -----
 Redundant internal coordinates taken from checkpoint file:
 S9L-ne-d-01.chk
 Charge =  0 Multiplicity = 1

 SCF Done:  E(RB+HF-LYP) =  -2605.56742218     A.U. after   18 cycles
 SCF Done:  E(RB+HF-LYP) =  -2605.56749964     A.U. after   18 cycles
 SCF Done:  E(RB+HF-LYP) =  -2605.56749382     A.U. after   18 cycles
 SCF Done:  E(RB+HF-LYP) =  -2605.56750841     A.U. after   18 cycles
 SCF Done:  E(RB+HF-LYP) =  -2605.56751040     A.U. after   16 cycles
 SCF Done:  E(RB+HF-LYP) =  -2605.56751087     A.U. after   11 cycles
 Normal termination of Gaussian 03 at Mon Apr  4 16:50:53 2011.

 -------------------------------------------------------------------
 #N Geom=AllCheck Guess=Read SCRF=Check GenChk RB3LYP/6-311G(d) Freq
 -------------------------------------------------------------------

 si9-n
 -----
 Redundant internal coordinates taken from checkpoint file:
 S9L-ne-d-01.chk
 Charge =  0 Multiplicity = 1

 SCF Done:  E(RB+HF-LYP) =  -2605.56751087     A.U. after    1 cycles
 Normal termination of Gaussian 03 at Mon Apr  4 16:59:59 2011.
 Gaussian 03:  AM64L-G03RevE.01 11-Sep-2007

 ----------------------------------------------------------------------
 # b3lyp/6-311+G(d) opt=(readfc,noeigentest,maxcycle=500) freq scfcyc=5
 00 optcyc=500 scf=xqc geom=allcheck guess=read
 ----------------------------------------------------------------------

 si9-n
 -----
 Redundant internal coordinates taken from checkpoint file:
 S9L-ne-d-01.chk
 Charge =  0 Multiplicity = 1

 SCF Done:  E(RB+HF-LYP) =  -2605.57213432     A.U. after   13 cycles
 SCF Done:  E(RB+HF-LYP) =  -2605.57214364     A.U. after   13 cycles
    -- Stationary point found.
 Normal termination of Gaussian 03 at Mon Apr  4 17:07:03 2011.

                         Standard orientation:
 ---------------------------------------------------------------------
 Center     Atomic     Atomic              Coordinates (Angstroms)
 Number     Number      Type              X           Y           Z
 ---------------------------------------------------------------------
    1         14             0        1.316537    0.053414    1.308996
    2         14             0        1.917897   -1.845968   -0.000016
    3         14             0        1.529689    2.036506    0.000022
    4         14             0        1.316542    0.053441   -1.308993
    5         14             0       -1.130659    0.077954    2.006151
    6         14             0       -0.449597   -1.504672   -0.000015
    7         14             0       -0.849304    1.456564    0.000011
    8         14             0       -1.130652    0.077994   -2.006149
    9         14             0       -2.520452   -0.405233   -0.000007
 ---------------------------------------------------------------------

 SCF Done:  E(RB+HF-LYP) =  -2605.57214364     A.U. after    1 cycles

 The electronic state is 1-A.
 Alpha  occ. eigenvalues --  -66.13758 -66.13268 -66.12589 -66.12214 -66.12214
 Alpha  occ. eigenvalues --  -66.12022 -66.12021 -66.11977 -66.11578  -5.30658
 Alpha  occ. eigenvalues --   -5.30362  -5.29701  -5.29085  -5.29084  -5.29084
 Alpha  occ. eigenvalues --   -5.29079  -5.28894  -5.28526  -3.66499  -3.66396
 Alpha  occ. eigenvalues --   -3.66302  -3.66216  -3.66166  -3.65979  -3.65664
 Alpha  occ. eigenvalues --   -3.65403  -3.65317  -3.65023  -3.65012  -3.64929
 Alpha  occ. eigenvalues --   -3.64928  -3.64846  -3.64840  -3.64813  -3.64813
 Alpha  occ. eigenvalues --   -3.64767  -3.64736  -3.64735  -3.64692  -3.64688
 Alpha  occ. eigenvalues --   -3.64651  -3.64488  -3.64396  -3.64228  -3.64183
 Alpha  occ. eigenvalues --   -0.68615  -0.59715  -0.54908  -0.53534  -0.43740
 Alpha  occ. eigenvalues --   -0.42332  -0.41761  -0.40016  -0.34985  -0.31270
 Alpha  occ. eigenvalues --   -0.28026  -0.27279  -0.25899  -0.25085  -0.24199
 Alpha  occ. eigenvalues --   -0.23720  -0.23495  -0.22598
 Alpha virt. eigenvalues --   -0.11964  -0.11044  -0.10563  -0.07788  -0.06390
 Alpha virt. eigenvalues --   -0.05293  -0.04574  -0.03280  -0.03030  -0.02425
 Alpha virt. eigenvalues --   -0.01283   0.00472   0.01047   0.01091   0.01497

 Mulliken atomic charges:
              1
     1  Si   0.274473
     2  Si  -0.183003
     3  Si  -0.494165
     4  Si   0.274474
     5  Si  -0.431931
     6  Si   0.010026
     7  Si   0.512262
     8  Si  -0.431939
     9  Si   0.469804
 Sum of Mulliken charges=   0.00000

 Dipole moment (field-independent basis, Debye):
    X=    -0.2725    Y=    -0.1772    Z=     0.0000  Tot=     0.3251
 Quadrupole moment (field-independent basis, Debye-Ang):
   XX=  -116.4610   YY=  -119.9224   ZZ=  -121.8061
   XY=     0.6571   XZ=     0.0000   YZ=     0.0000

  Exact polarizability: 303.628  -1.094 261.196   0.000   0.000 257.477
 Approx polarizability: 962.917  -3.441 803.794   0.000   0.000 815.043

                     1                      2                      3
                     A                      A                      A
 Frequencies --    75.5174                91.4135               114.8489
 Red. masses --    27.9769                27.9769                27.9769
 Frc consts  --     0.0940                 0.1377                 0.2174
 IR Inten    --     0.8039                 4.0580                 0.0966

                     4                      5                      6
                     A                      A                      A
 Frequencies --   151.8804               193.8045               212.9133
 Red. masses --    27.9769                27.9769                27.9769
 Frc consts  --     0.3802                 0.6191                 0.7472
 IR Inten    --     0.5943                 0.9711                 0.6414

                     7                      8                      9
                     A                      A                      A
 Frequencies --   233.7318               237.2605               250.0785
 Red. masses --    27.9769                27.9769                27.9769
 Frc consts  --     0.9005                 0.9279                 1.0309
 IR Inten    --     0.0995                 0.2907                 0.2184

                    10                     11                     12
                     A                      A                      A
 Frequencies --   269.4753               271.1238               279.0278
 Red. masses --    27.9769                27.9769                27.9769
 Frc consts  --     1.1970                 1.2117                 1.2834
 IR Inten    --     0.1083                 1.1639                 2.8163

                    13                     14                     15
                     A                      A                      A
 Frequencies --   298.1494               306.1006               316.0998
 Red. masses --    27.9769                27.9769                27.9769
 Frc consts  --     1.4653                 1.5445                 1.6470
 IR Inten    --     0.0536                 1.2821                 0.0986

                    16                     17                     18
                     A                      A                      A
 Frequencies --   357.7747               378.0330               382.5134
 Red. masses --    27.9769                27.9769                27.9769
 Frc consts  --     2.1099                 2.3556                 2.4118
 IR Inten    --     0.1877                 7.2599                 0.2186

                    19                     20                     21
                     A                      A                      A
 Frequencies --   399.6368               448.6993               478.6432
 Red. masses --    27.9769                27.9769                27.9769
 Frc consts  --     2.6326                 3.3186                 3.7764
 IR Inten    --     1.8002                 6.0940                 7.6082

 - Thermochemistry -
 -------------------
 Temperature   298.150 Kelvin.  Pressure   1.00000 Atm.
 Atom  1 has atomic number 14 and mass  27.97693

 Molecular mass:   251.79236 amu.
 Principal axes and moments of inertia in atomic units:
                           1         2         3
     EIGENVALUES --  2357.701493076.542913141.12694
           X            1.00000   0.00000   0.00000
           Y            0.00000   1.00000   0.00000
           Z            0.00000   0.00000   1.00000
 This molecule is an asymmetric top.
 Rotational symmetry number  1.
 Warning -- assumption of classical behavior for rotation
           may cause significant error
 Rotational temperatures (Kelvin)      0.03674     0.02815     0.02757
 Rotational constants (GHZ):           0.76547     0.58661     0.57455
 Zero-point vibrational energy      34373.1 (Joules/Mol)
                                    8.21536 (Kcal/Mol)
 Warning -- explicit consideration of  21 degrees of freedom as
           vibrations may cause significant error
 Vibrational temperatures:    108.65   131.52   165.24   218.52   278.84
          (Kelvin)            306.33   336.29   341.36   359.81   387.71
                              390.09   401.46   428.97   440.41   454.80
                              514.76   543.90   550.35   574.99   645.58
                              688.66

 Zero-point correction=                           0.013092 (Hartree/Particle)
 Thermal correction to Energy=                    0.025843
 Thermal correction to Enthalpy=                  0.026787
 Thermal correction to Gibbs Free Energy=        -0.026241
 Sum of electronic and zero-point Energies=          -2605.559052
 Sum of electronic and thermal Energies=             -2605.546301
 Sum of electronic and thermal Enthalpies=           -2605.545357
 Sum of electronic and thermal Free Energies=        -2605.598384

                     E (Thermal)             CV                S
                      KCal/Mol        Cal/Mol-Kelvin    Cal/Mol-Kelvin
 Total                   16.217             41.591            111.606
 Electronic               0.000              0.000              0.000
 Translational            0.889              2.981             42.471
 Rotational               0.889              2.981             31.500
 Vibrational             14.439             35.630             37.635
 Vibration  1             0.599              1.965              4.004
 Vibration  2             0.602              1.955              3.630
 Vibration  3             0.608              1.937              3.185
 Vibration  4             0.619              1.901              2.649
 Vibration  5             0.635              1.848              2.191
 Vibration  6             0.644              1.821              2.019
 Vibration  7             0.654              1.789              1.850
 Vibration  8             0.656              1.784              1.823
 Vibration  9             0.663              1.763              1.730
 Vibration 10             0.674              1.729              1.600
 Vibration 11             0.675              1.726              1.589
 Vibration 12             0.679              1.712              1.540
 Vibration 13             0.691              1.677              1.427
 Vibration 14             0.696              1.662              1.383
 Vibration 15             0.703              1.643              1.330
 Vibration 16             0.733              1.559              1.132
 Vibration 17             0.748              1.517              1.047
 Vibration 18             0.752              1.507              1.029
 Vibration 19             0.766              1.471              0.964
 Vibration 20             0.808              1.364              0.800
 Vibration 21             0.835              1.297              0.714

 Optimization completed.
    -- Stationary point found.
 Normal termination of Gaussian 03 at Mon Apr  4 17:23:32 2011.
