 Gaussian 09, Revision A.02,
 Gaussian 09:  AM64L-G09RevA.02 11-Jun-2009

 -----------------------
 # G4 scfcyc=500 scf=xqc
 -----------------------

 -----
 si9-n
 -----
 Symbolic Z-matrix:
 Charge =  0 Multiplicity = 1

 SCF Done:  E(RB3LYP) =  -2605.42089817     A.U. after   18 cycles
 SCF Done:  E(RB3LYP) =  -2605.42098672     A.U. after   11 cycles
 SCF Done:  E(RB3LYP) =  -2605.42105008     A.U. after   11 cycles
 SCF Done:  E(RB3LYP) =  -2605.42108696     A.U. after   13 cycles
 SCF Done:  E(RB3LYP) =  -2605.42110815     A.U. after   13 cycles
 SCF Done:  E(RB3LYP) =  -2605.42112848     A.U. after   13 cycles
 SCF Done:  E(RB3LYP) =  -2605.42114239     A.U. after   13 cycles
 SCF Done:  E(RB3LYP) =  -2605.42115196     A.U. after   13 cycles
 SCF Done:  E(RB3LYP) =  -2605.42115330     A.U. after   10 cycles
 Optimization completed.
    -- Stationary point found.
 Normal termination of Gaussian 09 at Tue Dec 20 16:39:18 2011.

 ----------------------------------------------------------
 #N Geom=AllCheck Guess=TCheck SCRF=Check B3LYP/GTBas3 Freq
 ----------------------------------------------------------

 si9-n
 -----
 Redundant internal coordinates taken from checkpoint file:
 S9L-ne-d-01.chk
 Charge =  0 Multiplicity = 1

 SCF Done:  E(RB3LYP) =  -2605.42115330     A.U. after    1 cycles

  Exact polarizability: 249.706   0.393 292.919   0.000   0.000 246.354
 Approx polarizability: 787.719   0.165 957.751   0.000   0.000 803.360

                     1                      2                      3
                    A'                     A"                     A"
 Frequencies --    45.0591                83.0934               109.8737
 Red. masses --    27.9769                27.9769                27.9769
 Frc consts  --     0.0335                 0.1138                 0.1990
 IR Inten    --     0.3284                 3.9584                 0.3194

                     4                      5                      6
                    A'                     A'                     A'
 Frequencies --   155.7187               193.8444               209.7906
 Red. masses --    27.9769                27.9769                27.9769
 Frc consts  --     0.3997                 0.6194                 0.7255
 IR Inten    --     0.6050                 0.6944                 0.5945

                     7                      8                      9
                    A"                     A'                     A"
 Frequencies --   239.6481               244.8236               252.6675
 Red. masses --    27.9769                27.9769                27.9769
 Frc consts  --     0.9467                 0.9880                 1.0523
 IR Inten    --     0.4520                 0.0790                 0.0757

                    10                     11                     12
                    A'                     A"                     A'
 Frequencies --   269.7254               278.2224               281.7377
 Red. masses --    27.9769                27.9769                27.9769
 Frc consts  --     1.1992                 1.2760                 1.3084
 IR Inten    --     0.0035                 1.0523                 3.0811

                    13                     14                     15
                    A'                     A"                     A'
 Frequencies --   305.9284               307.6674               320.1597
 Red. masses --    27.9769                27.9769                27.9769
 Frc consts  --     1.5427                 1.5603                 1.6896
 IR Inten    --     0.0342                 2.0944                 0.0419

                    16                     17                     18
                    A"                     A"                     A'
 Frequencies --   358.7721               382.1876               391.0994
 Red. masses --    27.9769                27.9769                27.9769
 Frc consts  --     2.1217                 2.4077                 2.5213
 IR Inten    --     0.0956                 4.3853                 0.0497

                    19                     20                     21
                    A'                     A'                     A'
 Frequencies --   415.3690               454.2804               477.1383
 Red. masses --    27.9769                27.9769                27.9769
 Frc consts  --     2.8439                 3.4017                 3.7527
 IR Inten    --     1.6119                 5.5504                 7.6579

 - Thermochemistry -
 -------------------
 Temperature   298.150 Kelvin.  Pressure   1.00000 Atm.
 Atom     1 has atomic number 14 and mass  27.97693

 Molecular mass:   251.79236 amu.
 Principal axes and moments of inertia in atomic units:
                           1         2         3
     Eigenvalues --  2338.033183056.297213125.41703
           X           -0.00335   0.99999   0.00000
           Y            0.99999   0.00335   0.00000
           Z            0.00000   0.00000   1.00000
 This molecule is an asymmetric top.
 Rotational symmetry number  1.
 Warning -- assumption of classical behavior for rotation
           may cause significant error
 Rotational temperatures (Kelvin)      0.03705     0.02834     0.02771
 Rotational constants (GHZ):           0.77191     0.59050     0.57744
 Zero-point vibrational energy      34553.0 (Joules/Mol)
                                    8.25836 (Kcal/Mol)
 Warning -- explicit consideration of  21 degrees of freedom as
           vibrations may cause significant error
 Vibrational temperatures:     64.83   119.55   158.08   224.04   278.90
          (Kelvin)            301.84   344.80   352.25   363.53   388.07
                              400.30   405.36   440.16   442.66   460.64
                              516.19   549.88   562.70   597.62   653.61
                              686.49

 Zero-point correction=                           0.013161 (Hartree/Particle)
 Thermal correction to Energy=                    0.025912
 Thermal correction to Enthalpy=                  0.026856
 Thermal correction to Gibbs Free Energy=        -0.026587
 Sum of electronic and zero-point Energies=          -2605.407993
 Sum of electronic and thermal Energies=             -2605.395241
 Sum of electronic and thermal Enthalpies=           -2605.394297
 Sum of electronic and thermal Free Energies=        -2605.447740

                     E (Thermal)             CV                S
                      KCal/Mol        Cal/Mol-Kelvin    Cal/Mol-Kelvin
 Total                   16.260             41.473            112.480
 Electronic               0.000              0.000              0.000
 Translational            0.889              2.981             42.471
 Rotational               0.889              2.981             31.480
 Vibrational             14.483             35.512             38.530
 Vibration     1          0.595              1.979              5.023
 Vibration     2          0.600              1.961              3.816
 Vibration     3          0.606              1.941              3.271
 Vibration     4          0.620              1.896              2.601
 Vibration     5          0.635              1.848              2.191
 Vibration     6          0.642              1.826              2.045
 Vibration     7          0.657              1.780              1.805
 Vibration     8          0.660              1.771              1.768
 Vibration     9          0.664              1.758              1.712
 Vibration    10          0.674              1.729              1.598
 Vibration    11          0.679              1.714              1.545
 Vibration    12          0.681              1.707              1.523
 Vibration    13          0.696              1.662              1.384
 Vibration    14          0.698              1.659              1.375
 Vibration    15          0.706              1.635              1.309
 Vibration    16          0.734              1.557              1.127
 Vibration    17          0.752              1.508              1.030
 Vibration    18          0.759              1.489              0.996
 Vibration    19          0.779              1.437              0.908
 Vibration    20          0.813              1.351              0.783
 Vibration    21          0.834              1.301              0.718

 Normal termination of Gaussian 09 at Tue Dec 20 16:44:34 2011.

 -----------------------------------------------------------------
 #N Geom=AllCheck Guess=TCheck SCRF=Check CCSD(T,E4T,FrzG4)/GTBas1
 -----------------------------------------------------------------

 si9-n
 -----
 Redundant internal coordinates taken from checkpoint file:
 S9L-ne-d-01.chk
 Charge =  0 Multiplicity = 1

 SCF Done:  E(RHF) =  -2600.05826034     A.U. after   17 cycles
 E2 =    -0.8891619877D+00 EUMP2 =    -0.26009474223307D+04
 CCSD(T)= -0.26010103001D+04
 2601.0604126\MP4SDQ=-2600.9483566\CCSD=-2600.9282011\CCSD(T)=-2601.010
 Normal termination of Gaussian 09 at Tue Dec 20 16:50:39 2011.

 ---------------------------------------------------------
 #N Geom=AllCheck Guess=TCheck SCRF=Check MP4=FrzG4/GTBas2
 ---------------------------------------------------------

 si9-n
 -----
 Redundant internal coordinates taken from checkpoint file:
 S9L-ne-d-01.chk
 Charge =  0 Multiplicity = 1

 SCF Done:  E(RHF) =  -2600.06499825     A.U. after   15 cycles
 E2 =    -0.8981687878D+00 EUMP2 =    -0.26009631670372D+04
 Normal termination of Gaussian 09 at Tue Dec 20 16:53:59 2011.

 ---------------------------------------------------------
 #N Geom=AllCheck Guess=TCheck SCRF=Check MP4=FrzG4/GTBas3
 ---------------------------------------------------------

 si9-n
 -----
 Redundant internal coordinates taken from checkpoint file:
 S9L-ne-d-01.chk
 Charge =  0 Multiplicity = 1

 SCF Done:  E(RHF) =  -2600.12537453     A.U. after   16 cycles
 E2 =    -0.1109375966D+01 EUMP2 =    -0.26012347504959D+04
 Normal termination of Gaussian 09 at Tue Dec 20 17:11:24 2011.

 -----------------------------------------------------------
 #N Geom=AllCheck Guess=TCheck SCRF=Check MP2=Full/GTLargeXP
 -----------------------------------------------------------

 si9-n
 -----
 Redundant internal coordinates taken from checkpoint file:
 S9L-ne-d-01.chk
 Charge =  0 Multiplicity = 1

 SCF Done:  E(RHF) =  -2600.29848468     A.U. after   14 cycles
 E2 =    -0.3779246325D+01 EUMP2 =    -0.26040777310094D+04
 Normal termination of Gaussian 09 at Tue Dec 20 18:01:33 2011.
 SCF Done:  E(RHF) =  -2600.34693075     A.U. after   12 cycles
 Normal termination of Gaussian 09 at Tue Dec 20 18:16:47 2011.

                         Standard orientation:
 ---------------------------------------------------------------------
 Center     Atomic      Atomic             Coordinates (Angstroms)
 Number     Number       Type             X           Y           Z
 ---------------------------------------------------------------------
      1         14           0        0.038072   -1.314896    1.297059
      2         14           0       -1.884098   -1.849049    0.000000
      3         14           0        2.013969   -1.595719    0.000000
      4         14           0        0.038072   -1.314896   -1.297059
      5         14           0        0.038072    1.125151    1.998794
      6         14           0       -1.491792    0.516242    0.000000
      7         14           0        1.464542    0.775653    0.000000
      8         14           0        0.038072    1.125151   -1.998794
      9         14           0       -0.254907    2.532362    0.000000
 ---------------------------------------------------------------------

 SCF Done:  E(RHF) =  -2600.35579930     A.U. after   11 cycles

 The electronic state is 1-A'.
 Alpha  occ. eigenvalues --  -68.82335 -68.81664 -68.81013 -68.80186 -68.80186
 Alpha  occ. eigenvalues --  -68.79974 -68.79974 -68.79913 -68.79500  -6.16774
 Alpha  occ. eigenvalues --   -6.16281  -6.15680  -6.14664  -6.14663  -6.14600
 Alpha  occ. eigenvalues --   -6.14593  -6.14401  -6.14016  -4.26890  -4.26880
 Alpha  occ. eigenvalues --   -4.26849  -4.26642  -4.26589  -4.26539  -4.26049
 Alpha  occ. eigenvalues --   -4.25953  -4.25950  -4.25020  -4.24998  -4.24911
 Alpha  occ. eigenvalues --   -4.24905  -4.24871  -4.24868  -4.24824  -4.24824
 Alpha  occ. eigenvalues --   -4.24808  -4.24808  -4.24793  -4.24792  -4.24571
 Alpha  occ. eigenvalues --   -4.24525  -4.24522  -4.24199  -4.24150  -4.24136
 Alpha  occ. eigenvalues --   -0.89683  -0.77995  -0.71709  -0.70097  -0.56197
 Alpha  occ. eigenvalues --   -0.54968  -0.54246  -0.51690  -0.45438  -0.39621
 Alpha  occ. eigenvalues --   -0.35594  -0.33931  -0.32502  -0.30979  -0.30854
 Alpha  occ. eigenvalues --   -0.30524  -0.29801  -0.28396
 Alpha virt. eigenvalues --   -0.01834  -0.01386  -0.00711   0.01647   0.02240
 Alpha virt. eigenvalues --    0.02786   0.02961   0.03319   0.03426   0.03609
 Alpha virt. eigenvalues --    0.03922   0.04049   0.04579   0.05590   0.05974

 Mulliken atomic charges:
              1
     1  Si   0.082239
     2  Si  -0.131920
     3  Si  -0.127491
     4  Si   0.082239
     5  Si  -0.115302
     6  Si   0.142852
     7  Si   0.133840
     8  Si  -0.115302
     9  Si   0.048844
 Sum of Mulliken atomic charges =   0.00000

 Dipole moment (field-independent basis, Debye):
    X=             -0.0892    Y=              0.3771    Z=              0.0000  Tot=              0.3875
 Quadrupole moment (field-independent basis, Debye-Ang):
   XX=           -122.1620   YY=           -120.3627   ZZ=           -124.2285
   XY=             -0.2264   XZ=              0.0000   YZ=              0.0000

 Normal termination of Gaussian 09 at Tue Dec 20 19:50:36 2011.
