 Gaussian 09, Revision A.02,
 Gaussian 09:  AM64L-G09RevA.02 11-Jun-2009

 -----------------------
 # G4 scfcyc=500 scf=xqc
 -----------------------

 -----
 si5-c
 -----
 Symbolic Z-matrix:
 Charge =  1 Multiplicity = 2

 SCF Done:  E(UB3LYP) =  -1447.11823222     A.U. after   19 cycles
 SCF Done:  E(UB3LYP) =  -1447.11826066     A.U. after   12 cycles
 SCF Done:  E(UB3LYP) =  -1447.11826943     A.U. after   12 cycles
 SCF Done:  E(UB3LYP) =  -1447.11826982     A.U. after   10 cycles
 Optimization completed.
    -- Stationary point found.
 Normal termination of Gaussian 09 at Wed Dec 21 10:13:51 2011.

 ----------------------------------------------------------
 #N Geom=AllCheck Guess=TCheck SCRF=Check B3LYP/GTBas3 Freq
 ----------------------------------------------------------

 si5-c
 -----
 Redundant internal coordinates taken from checkpoint file:
 S9L-ne-d-01.chk
 Charge =  1 Multiplicity = 2

 SCF Done:  E(UB3LYP) =  -1447.11826982     A.U. after    1 cycles

  Exact polarizability: 142.978   0.000 147.473   0.000   0.000 133.040
 Approx polarizability: 458.971   0.000 398.502   0.000   0.000 372.050

                     1                      2                      3
                    A1                     B2                     A1
 Frequencies --   130.2134               185.8921               230.2825
 Red. masses --    27.9769                27.9769                27.9769
 Frc consts  --     0.2795                 0.5696                 0.8741
 IR Inten    --     0.0455                 3.9918                 0.1312

                     4                      5                      6
                    B2                     B1                     A2
 Frequencies --   240.4442               294.9221               296.5439
 Red. masses --    27.9769                27.9769                27.9769
 Frc consts  --     0.9530                 1.4337                 1.4495
 IR Inten    --     1.1564                 1.4855                 0.0000

                     7                      8                      9
                    A1                     B1                     A1
 Frequencies --   392.5814               439.4509               476.9519
 Red. masses --    27.9769                27.9769                27.9769
 Frc consts  --     2.5404                 3.1833                 3.7497
 IR Inten    --     2.7092                 0.0988                 0.0252

 - Thermochemistry -
 -------------------
 Temperature   298.150 Kelvin.  Pressure   1.00000 Atm.
 Atom     1 has atomic number 14 and mass  27.97693

 Molecular mass:   139.88464 amu.
 Principal axes and moments of inertia in atomic units:
                           1         2         3
     Eigenvalues --   898.00607 916.762801004.56994
           X            0.00000   1.00000   0.00000
           Y            1.00000   0.00000   0.00000
           Z            0.00000   0.00000   1.00000
 This molecule is an asymmetric top.
 Rotational symmetry number  2.
 Warning -- assumption of classical behavior for rotation
           may cause significant error
 Rotational temperatures (Kelvin)      0.09645     0.09448     0.08622
 Rotational constants (GHZ):           2.00972     1.96860     1.79653
 Zero-point vibrational energy      16073.5 (Joules/Mol)
                                    3.84166 (Kcal/Mol)
 Warning -- explicit consideration of   9 degrees of freedom as
           vibrations may cause significant error
 Vibrational temperatures:    187.35   267.46   331.32   345.95   424.33
          (Kelvin)            426.66   564.84   632.27   686.23

 Zero-point correction=                           0.006122 (Hartree/Particle)
 Thermal correction to Energy=                    0.012913
 Thermal correction to Enthalpy=                  0.013858
 Thermal correction to Gibbs Free Energy=        -0.025688
 Sum of electronic and zero-point Energies=          -1447.112148
 Sum of electronic and thermal Energies=             -1447.105356
 Sum of electronic and thermal Enthalpies=           -1447.104412
 Sum of electronic and thermal Free Energies=        -1447.143958

                     E (Thermal)             CV                S
                      KCal/Mol        Cal/Mol-Kelvin    Cal/Mol-Kelvin
 Total                    8.103             20.852             83.230
 Electronic               0.000              0.000              1.377
 Translational            0.889              2.981             40.719
 Rotational               0.889              2.981             26.827
 Vibrational              6.326             14.890             14.307
 Vibration     1          0.612              1.923              2.943
 Vibration     2          0.632              1.859              2.268
 Vibration     3          0.652              1.795              1.877
 Vibration     4          0.658              1.778              1.800
 Vibration     5          0.689              1.683              1.446
 Vibration     6          0.690              1.680              1.436
 Vibration     7          0.760              1.486              0.990
 Vibration     8          0.799              1.384              0.828
 Vibration     9          0.834              1.301              0.718

 Optimization completed.
    -- Stationary point found.
 Normal termination of Gaussian 09 at Wed Dec 21 10:14:57 2011.

 -----------------------------------------------------------------
 #N Geom=AllCheck Guess=TCheck SCRF=Check CCSD(T,E4T,FrzG4)/GTBas1
 -----------------------------------------------------------------

 si5-c
 -----
 Redundant internal coordinates taken from checkpoint file:
 S9L-ne-d-01.chk
 Charge =  1 Multiplicity = 2

 SCF Done:  E(UHF) =  -1444.16972768     A.U. after   26 cycles
 E2 =    -0.4224717697D+00 EUMP2 =    -0.14445921994463D+04
 CCSD(T)= -0.14446617425D+04
 Normal termination of Gaussian 09 at Wed Dec 21 10:15:48 2011.

 ---------------------------------------------------------
 #N Geom=AllCheck Guess=TCheck SCRF=Check MP4=FrzG4/GTBas2
 ---------------------------------------------------------

 si5-c
 -----
 Redundant internal coordinates taken from checkpoint file:
 S9L-ne-d-01.chk
 Charge =  1 Multiplicity = 2

 SCF Done:  E(UHF) =  -1444.17383850     A.U. after   21 cycles
 E2 =    -0.4254532397D+00 EUMP2 =    -0.14445992917374D+04
 Normal termination of Gaussian 09 at Wed Dec 21 10:16:09 2011.

 ---------------------------------------------------------
 #N Geom=AllCheck Guess=TCheck SCRF=Check MP4=FrzG4/GTBas3
 ---------------------------------------------------------

 si5-c
 -----
 Redundant internal coordinates taken from checkpoint file:
 S9L-ne-d-01.chk
 Charge =  1 Multiplicity = 2

 SCF Done:  E(UHF) =  -1444.21476329     A.U. after   24 cycles
 E2 =    -0.5232014925D+00 EUMP2 =    -0.14447379647779D+04
 Normal termination of Gaussian 09 at Wed Dec 21 10:17:47 2011.

 -----------------------------------------------------------
 #N Geom=AllCheck Guess=TCheck SCRF=Check MP2=Full/GTLargeXP
 -----------------------------------------------------------

 si5-c
 -----
 Redundant internal coordinates taken from checkpoint file:
 S9L-ne-d-01.chk
 Charge =  1 Multiplicity = 2

 SCF Done:  E(UHF) =  -1444.31200677     A.U. after   21 cycles
 E2 =    -0.2000164299D+01 EUMP2 =    -0.14463121710733D+04
 Normal termination of Gaussian 09 at Wed Dec 21 10:26:59 2011.
 SCF Done:  E(UHF) =  -1444.33988156     A.U. after   22 cycles
 Normal termination of Gaussian 09 at Wed Dec 21 10:32:50 2011.

                         Standard orientation:
 ---------------------------------------------------------------------
 Center     Atomic      Atomic             Coordinates (Angstroms)
 Number     Number       Type             X           Y           Z
 ---------------------------------------------------------------------
      1         14           0        0.000000    1.600215   -0.826047
      2         14           0        0.000000   -1.600215   -0.826047
      3         14           0        0.000000    0.000000    1.640112
      4         14           0        1.570610    0.000000    0.005991
      5         14           0       -1.570610    0.000000    0.005991
 ---------------------------------------------------------------------

 SCF Done:  E(UHF) =  -1444.34445173     A.U. after   19 cycles

 The electronic state is 2-A1.
 Alpha  occ. eigenvalues --  -69.00117 -69.00117 -68.99588 -68.97974 -68.97974
 Alpha  occ. eigenvalues --   -6.34412  -6.34411  -6.34211  -6.32592  -6.32591
 Alpha  occ. eigenvalues --   -4.44938  -4.44705  -4.44703  -4.44572  -4.44387
 Alpha  occ. eigenvalues --   -4.44387  -4.44144  -4.44046  -4.44044  -4.42875
 Alpha  occ. eigenvalues --   -4.42871  -4.42802  -4.42801  -4.42619  -4.42619
 Alpha  occ. eigenvalues --   -1.01944  -0.79454  -0.78921  -0.78200  -0.57319
 Alpha  occ. eigenvalues --   -0.51891  -0.51676  -0.50728  -0.49098  -0.47229
 Alpha virt. eigenvalues --   -0.20148  -0.17965  -0.15462  -0.11787  -0.08392
 Alpha virt. eigenvalues --   -0.07977  -0.07811  -0.06680  -0.05363  -0.04773
 Alpha virt. eigenvalues --   -0.04290  -0.04161  -0.04031  -0.03933  -0.03931

  Beta  occ. eigenvalues --  -69.00117 -69.00117 -68.98932 -68.97994 -68.97994
  Beta  occ. eigenvalues --   -6.34367  -6.34367  -6.33312  -6.32612  -6.32611
  Beta  occ. eigenvalues --   -4.44760  -4.44759  -4.44339  -4.44339  -4.44166
  Beta  occ. eigenvalues --   -4.44164  -4.43802  -4.43490  -4.43116  -4.42870
  Beta  occ. eigenvalues --   -4.42870  -4.42856  -4.42856  -4.42674  -4.42672
  Beta  occ. eigenvalues --   -1.00356  -0.79440  -0.77496  -0.73683  -0.54308
  Beta  occ. eigenvalues --   -0.51424  -0.51078  -0.50838  -0.48490
  Beta virt. eigenvalues --   -0.21067  -0.20022  -0.15070  -0.13457  -0.07990
  Beta virt. eigenvalues --   -0.07916  -0.07646  -0.07255  -0.06496  -0.04519
  Beta virt. eigenvalues --   -0.04388  -0.04215  -0.04146  -0.03780  -0.03592

 Mulliken atomic charges:
              1
     1  Si   0.278659
     2  Si   0.278659
     3  Si   0.215132
     4  Si   0.113775
     5  Si   0.113775
 Sum of Mulliken atomic charges =   1.00000

 Dipole moment (field-independent basis, Debye):
    X=              0.0000    Y=              0.0000    Z=              0.6875  Tot=              0.6875
 Quadrupole moment (field-independent basis, Debye-Ang):
   XX=            -51.1498   YY=            -53.4404   ZZ=            -52.7750
   XY=              0.0000   XZ=              0.0000   YZ=              0.0000

 Normal termination of Gaussian 09 at Wed Dec 21 11:06:48 2011.
