 Gaussian 09, Revision A.02,
 Gaussian 09:  AM64L-G09RevA.02 11-Jun-2009

 -----------------------
 # G4 scfcyc=500 scf=xqc
 -----------------------

 ------------
 si11-an-d-02
 ------------
 Symbolic Z-matrix:
 Charge = -1 Multiplicity = 2

 SCF Done:  E(UB3LYP) =  -3184.48993924     A.U. after   22 cycles
 SCF Done:  E(UB3LYP) =  -3184.49016347     A.U. after   13 cycles
 SCF Done:  E(UB3LYP) =  -3184.49029868     A.U. after   16 cycles
 SCF Done:  E(UB3LYP) =  -3184.49031708     A.U. after   13 cycles
 SCF Done:  E(UB3LYP) =  -3184.49032290     A.U. after   13 cycles
 SCF Done:  E(UB3LYP) =  -3184.49032615     A.U. after   12 cycles
 SCF Done:  E(UB3LYP) =  -3184.49032692     A.U. after   12 cycles
 SCF Done:  E(UB3LYP) =  -3184.49032716     A.U. after   11 cycles
 Optimization completed.
    -- Stationary point found.
 Normal termination of Gaussian 09 at Tue Mar  6 04:56:42 2012.

 ----------------------------------------------------------
 #N Geom=AllCheck Guess=TCheck SCRF=Check B3LYP/GTBas3 Freq
 ----------------------------------------------------------

 si11-an-d-02
 ------------
 Redundant internal coordinates taken from checkpoint file:
 S9L-ne-d-02.chk
 Charge = -1 Multiplicity = 2

 SCF Done:  E(UB3LYP) =  -3184.49032716     A.U. after    1 cycles

  Exact polarizability: 325.506  17.635 397.036   0.000   0.000 299.813
 Approx polarizability:1091.664  75.6931318.173   0.000   0.0001021.557

                     1                      2                      3
                    A"                     A'                     A"
 Frequencies --    76.8941                87.2192               107.6749
 Red. masses --    27.9769                27.9769                27.9769
 Frc consts  --     0.0975                 0.1254                 0.1911
 IR Inten    --     0.7194                 0.8370                 2.4372

                     4                      5                      6
                    A"                     A'                     A'
 Frequencies --   137.6950               144.2915               165.4247
 Red. masses --    27.9769                27.9769                27.9769
 Frc consts  --     0.3125                 0.3432                 0.4511
 IR Inten    --     0.4541                 0.1397                 0.4622

                     7                      8                      9
                    A'                     A"                     A'
 Frequencies --   176.5365               201.9848               203.0552
 Red. masses --    27.9769                27.9769                27.9769
 Frc consts  --     0.5137                 0.6725                 0.6796
 IR Inten    --     0.5128                 0.1046                 2.8442

                    10                     11                     12
                    A"                     A'                     A"
 Frequencies --   214.0566               214.7122               241.9883
 Red. masses --    27.9769                27.9769                27.9769
 Frc consts  --     0.7553                 0.7599                 0.9652
 IR Inten    --     0.0034                 0.9427                 0.0005

                    13                     14                     15
                    A'                     A"                     A"
 Frequencies --   254.0300               259.2399               262.2664
 Red. masses --    27.9769                27.9769                27.9769
 Frc consts  --     1.0637                 1.1078                 1.1338
 IR Inten    --     0.3923                 0.2131                 0.4632

                    16                     17                     18
                    A'                     A'                     A'
 Frequencies --   270.5277               285.7170               300.7218
 Red. masses --    27.9769                27.9769                27.9769
 Frc consts  --     1.2064                 1.3456                 1.4907
 IR Inten    --     0.3667                 0.3340                 1.0217

                    19                     20                     21
                    A"                     A'                     A'
 Frequencies --   304.0825               323.1276               342.6615
 Red. masses --    27.9769                27.9769                27.9769
 Frc consts  --     1.5242                 1.7211                 1.9354
 IR Inten    --     0.1339                 0.2219                 0.0629

                    22                     23                     24
                    A"                     A'                     A'
 Frequencies --   357.3175               366.3446               385.3015
 Red. masses --    27.9769                27.9769                27.9769
 Frc consts  --     2.1045                 2.2122                 2.4471
 IR Inten    --     0.3393                 3.4872                 1.5186

                    25                     26                     27
                    A"                     A'                     A'
 Frequencies --   413.5809               414.8364               454.1743
 Red. masses --    27.9769                27.9769                27.9769
 Frc consts  --     2.8195                 2.8366                 3.4001
 IR Inten    --     3.4312                 0.2032                 7.7589

 - Thermochemistry -
 -------------------
 Temperature   298.150 Kelvin.  Pressure   1.00000 Atm.
 Atom     1 has atomic number 14 and mass  27.97693

 Molecular mass:   307.74621 amu.
 Principal axes and moments of inertia in atomic units:
                           1         2         3
     Eigenvalues --  3213.416944450.125584755.36401
           X            0.21636   0.97631   0.00000
           Y            0.97631  -0.21636   0.00000
           Z            0.00000   0.00000   1.00000
 This molecule is an asymmetric top.
 Rotational symmetry number  1.
 Warning -- assumption of classical behavior for rotation
           may cause significant error
 Rotational temperatures (Kelvin)      0.02695     0.01946     0.01821
 Rotational constants (GHZ):           0.56163     0.40555     0.37952
 Zero-point vibrational energy      41662.7 (Joules/Mol)
                                    9.95763 (Kcal/Mol)
 Warning -- explicit consideration of  27 degrees of freedom as
           vibrations may cause significant error
 Vibrational temperatures:    110.63   125.49   154.92   198.11   207.60
          (Kelvin)            238.01   254.00   290.61   292.15   307.98
                              308.92   348.17   365.49   372.99   377.34
                              389.23   411.08   432.67   437.51   464.91
                              493.01   514.10   527.09   554.36   595.05
                              596.86   653.45

 Zero-point correction=                           0.015868 (Hartree/Particle)
 Thermal correction to Energy=                    0.031971
 Thermal correction to Enthalpy=                  0.032916
 Thermal correction to Gibbs Free Energy=        -0.027783
 Sum of electronic and zero-point Energies=          -3184.474459
 Sum of electronic and thermal Energies=             -3184.458356
 Sum of electronic and thermal Enthalpies=           -3184.457411
 Sum of electronic and thermal Free Energies=        -3184.518110

                     E (Thermal)             CV                S
                      KCal/Mol        Cal/Mol-Kelvin    Cal/Mol-Kelvin
 Total                   20.062             52.559            127.750
 Electronic               0.000              0.000              1.377
 Translational            0.889              2.981             43.069
 Rotational               0.889              2.981             32.586
 Vibrational             18.285             46.597             50.718
 Vibration     1          0.599              1.965              3.969
 Vibration     2          0.601              1.958              3.721
 Vibration     3          0.606              1.943              3.310
 Vibration     4          0.614              1.916              2.836
 Vibration     5          0.616              1.909              2.746
 Vibration     6          0.624              1.885              2.487
 Vibration     7          0.628              1.871              2.365
 Vibration     8          0.639              1.837              2.115
 Vibration     9          0.639              1.836              2.105
 Vibration    10          0.644              1.820              2.009
 Vibration    11          0.645              1.819              2.003
 Vibration    12          0.658              1.776              1.788
 Vibration    13          0.665              1.756              1.702
 Vibration    14          0.668              1.747              1.667
 Vibration    15          0.670              1.742              1.647
 Vibration    16          0.674              1.727              1.593
 Vibration    17          0.684              1.700              1.499
 Vibration    18          0.693              1.672              1.413
 Vibration    19          0.695              1.666              1.394
 Vibration    20          0.708              1.629              1.294
 Vibration    21          0.722              1.590              1.200
 Vibration    22          0.732              1.560              1.134
 Vibration    23          0.739              1.541              1.095
 Vibration    24          0.754              1.502              1.018
 Vibration    25          0.777              1.441              0.914
 Vibration    26          0.778              1.438              0.910
 Vibration    27          0.813              1.352              0.783

 Normal termination of Gaussian 09 at Tue Mar  6 05:25:24 2012.

 -----------------------------------------------------------------
 #N Geom=AllCheck Guess=TCheck SCRF=Check CCSD(T,E4T,FrzG4)/GTBas1
 -----------------------------------------------------------------

 si11-an-d-02
 ------------
 Redundant internal coordinates taken from checkpoint file:
 S9L-ne-d-02.chk
 Charge = -1 Multiplicity = 2

 SCF Done:  E(UHF) =  -3177.92418699     A.U. after   25 cycles
 E2 =    -0.1107192648D+01 EUMP2 =    -0.31790313796362D+04
 CCSD(T)= -0.31791027487D+04
 995269\CCSD(T)=-3179.1027487\S2=0.846689\S2-1=0.80196\S2A=0.757691\RMS
 Normal termination of Gaussian 09 at Tue Mar  6 06:39:09 2012.

 ---------------------------------------------------------
 #N Geom=AllCheck Guess=TCheck SCRF=Check MP4=FrzG4/GTBas2
 ---------------------------------------------------------

 si11-an-d-02
 ------------
 Redundant internal coordinates taken from checkpoint file:
 S9L-ne-d-02.chk
 Charge = -1 Multiplicity = 2

 SCF Done:  E(UHF) =  -3177.93179872     A.U. after   22 cycles
 E2 =    -0.1126098463D+01 EUMP2 =    -0.31790578971815D+04
 Normal termination of Gaussian 09 at Tue Mar  6 07:13:31 2012.

 ---------------------------------------------------------
 #N Geom=AllCheck Guess=TCheck SCRF=Check MP4=FrzG4/GTBas3
 ---------------------------------------------------------

 si11-an-d-02
 ------------
 Redundant internal coordinates taken from checkpoint file:
 S9L-ne-d-02.chk
 Charge = -1 Multiplicity = 2

 SCF Done:  E(UHF) =  -3177.99655417     A.U. after   23 cycles
 E2 =    -0.1397056504D+01 EUMP2 =    -0.31793936106708D+04
 Normal termination of Gaussian 09 at Tue Mar  6 10:20:44 2012.

 -----------------------------------------------------------
 #N Geom=AllCheck Guess=TCheck SCRF=Check MP2=Full/GTLargeXP
 -----------------------------------------------------------

 si11-an-d-02
 ------------
 Redundant internal coordinates taken from checkpoint file:
 S9L-ne-d-02.chk
 Charge = -1 Multiplicity = 2

 SCF Done:  E(UHF) =  -3178.20849746     A.U. after   22 cycles
 E2 =    -0.4663940894D+01 EUMP2 =    -0.31828724383533D+04
 Normal termination of Gaussian 09 at Tue Mar  6 21:39:41 2012.
 SCF Done:  E(UHF) =  -3178.26861837     A.U. after   17 cycles
 Normal termination of Gaussian 09 at Tue Mar  6 22:54:45 2012.

                         Standard orientation:
 ---------------------------------------------------------------------
 Center     Atomic      Atomic             Coordinates (Angstroms)
 Number     Number       Type             X           Y           Z
 ---------------------------------------------------------------------
      1         14           0        0.129638   -3.244928    0.000000
      2         14           0       -1.755661   -1.694164    0.000000
      3         14           0       -1.678045    0.336290    1.337425
      4         14           0        1.522736    2.346021    0.000000
      5         14           0        0.563900   -1.230141   -1.261678
      6         14           0        0.563900   -1.230141    1.261678
      7         14           0       -1.678045    0.336290   -1.337425
      8         14           0        0.563900    1.068170    1.973992
      9         14           0       -1.001701    2.229405    0.000000
     10         14           0        2.205477    0.015026    0.000000
     11         14           0        0.563900    1.068170   -1.973992
 ---------------------------------------------------------------------

 SCF Done:  E(UHF) =  -3178.27945260     A.U. after   17 cycles

 The electronic state is 2-A'.
 Alpha  occ. eigenvalues --  -68.69168 -68.68940 -68.67656 -68.67656 -68.67563
 Alpha  occ. eigenvalues --  -68.67563 -68.66658 -68.66497 -68.66368 -68.66327
 Alpha  occ. eigenvalues --  -68.66327  -6.03569  -6.03459  -6.02347  -6.02338
 Alpha  occ. eigenvalues --   -6.02033  -6.02033  -6.01171  -6.01126  -6.00985
 Alpha  occ. eigenvalues --   -6.00980  -6.00902  -4.14191  -4.14023  -4.13705
 Alpha  occ. eigenvalues --   -4.13688  -4.13646  -4.13534  -4.12825  -4.12794
 Alpha  occ. eigenvalues --   -4.12685  -4.12682  -4.12632  -4.12629  -4.12305
 Alpha  occ. eigenvalues --   -4.12305  -4.12235  -4.12235  -4.12167  -4.12167
 Alpha  occ. eigenvalues --   -4.11412  -4.11406  -4.11401  -4.11391  -4.11391
 Alpha  occ. eigenvalues --   -4.11364  -4.11345  -4.11332  -4.11263  -4.11235
 Alpha  occ. eigenvalues --   -4.11221  -4.11194  -4.11192  -4.11086  -4.11004
 Alpha  occ. eigenvalues --   -0.76154  -0.66374  -0.63174  -0.61090  -0.52180
 Alpha  occ. eigenvalues --   -0.49031  -0.42928  -0.42390  -0.41438  -0.35756
 Alpha  occ. eigenvalues --   -0.32454  -0.28305  -0.24581  -0.23783  -0.21417
 Alpha  occ. eigenvalues --   -0.20799  -0.19498  -0.18772  -0.17502  -0.16216
 Alpha  occ. eigenvalues --   -0.15635  -0.15444  -0.12199
 Alpha virt. eigenvalues --    0.09576   0.10503   0.10521   0.10701   0.10966
 Alpha virt. eigenvalues --    0.11017   0.11115   0.11205   0.11319   0.11985
 Alpha virt. eigenvalues --    0.12529   0.12569   0.12712   0.13524   0.13608

  Beta  occ. eigenvalues --  -68.68956 -68.68620 -68.67731 -68.67730 -68.67550
  Beta  occ. eigenvalues --  -68.67550 -68.66648 -68.66510 -68.66238 -68.66222
  Beta  occ. eigenvalues --  -68.66222  -6.03321  -6.03014  -6.02439  -6.02431
  Beta  occ. eigenvalues --   -6.02020  -6.02020  -6.01150  -6.01132  -6.00841
  Beta  occ. eigenvalues --   -6.00836  -6.00763  -4.13513  -4.13496  -4.13488
  Beta  occ. eigenvalues --   -4.13466  -4.13119  -4.12940  -4.12931  -4.12912
  Beta  occ. eigenvalues --   -4.12847  -4.12820  -4.12741  -4.12738  -4.12264
  Beta  occ. eigenvalues --   -4.12264  -4.12209  -4.12208  -4.12148  -4.12148
  Beta  occ. eigenvalues --   -4.11442  -4.11431  -4.11421  -4.11411  -4.11267
  Beta  occ. eigenvalues --   -4.11245  -4.11178  -4.11164  -4.11140  -4.11140
  Beta  occ. eigenvalues --   -4.11007  -4.10990  -4.10989  -4.10962  -4.10676
  Beta  occ. eigenvalues --   -0.75835  -0.65264  -0.62422  -0.60977  -0.50641
  Beta  occ. eigenvalues --   -0.46847  -0.42535  -0.42307  -0.41134  -0.34796
  Beta  occ. eigenvalues --   -0.29062  -0.26840  -0.23565  -0.22415  -0.20710
  Beta  occ. eigenvalues --   -0.20394  -0.18820  -0.18544  -0.16780  -0.15118
  Beta  occ. eigenvalues --   -0.15022  -0.13911
  Beta virt. eigenvalues --    0.09572   0.09753   0.10524   0.10535   0.10718
  Beta virt. eigenvalues --    0.11008   0.11043   0.11126   0.11200   0.11383
  Beta virt. eigenvalues --    0.12273   0.12550   0.12759   0.12907   0.13641

 Mulliken atomic charges:
              1
     1  Si  -0.125204
     2  Si  -0.063338
     3  Si  -0.140729
     4  Si  -0.135385
     5  Si   0.038869
     6  Si   0.038869
     7  Si  -0.140729
     8  Si  -0.123891
     9  Si  -0.073845
    10  Si  -0.150724
    11  Si  -0.123891
 Sum of Mulliken atomic charges =  -1.00000

 Dipole moment (field-independent basis, Debye):
    X=             -0.2713    Y=             -2.4615    Z=              0.0000  Tot=              2.4764
 Quadrupole moment (field-independent basis, Debye-Ang):
   XX=           -177.1186   YY=           -183.2454   ZZ=           -171.4665
   XY=             -0.4166   XZ=              0.0000   YZ=              0.0000

 Normal termination of Gaussian 09 at Wed Mar  7 06:24:41 2012.
