 Gaussian 09, Revision A.02,
 Gaussian 09:  AM64L-G09RevA.02 11-Jun-2009

 -----------------------
 # G4 scfcyc=500 scf=xqc
 -----------------------

 -------
 si2-c-q
 -------
 Symbolic Z-matrix:
 Charge =  1 Multiplicity = 4

 SCF Done:  E(UB3LYP) =  -578.569229318     A.U. after   10 cycles
 SCF Done:  E(UB3LYP) =  -578.573166984     A.U. after    9 cycles
 SCF Done:  E(UB3LYP) =  -578.573672405     A.U. after    9 cycles
 SCF Done:  E(UB3LYP) =  -578.573672705     A.U. after    6 cycles
 Optimization completed.
    -- Stationary point found.
 Normal termination of Gaussian 09 at Sat Jan  7 10:07:02 2012.

 ----------------------------------------------------------
 #N Geom=AllCheck Guess=TCheck SCRF=Check B3LYP/GTBas3 Freq
 ----------------------------------------------------------

 si2-c-q
 -------
 Redundant internal coordinates taken from checkpoint file:
 S9L-ne-d-01.chk
 Charge =  1 Multiplicity = 4

 SCF Done:  E(UB3LYP) =  -578.573672705     A.U. after    1 cycles

  Exact polarizability:  33.547   0.000  33.547   0.000   0.000  85.437
 Approx polarizability:  54.600   0.000  54.600   0.000   0.000 209.066

                     1
                    SGG
 Frequencies --   447.9017
 Red. masses --    27.9769
 Frc consts  --     3.3069
 IR Inten    --     0.0000

 - Thermochemistry -
 -------------------
 Temperature   298.150 Kelvin.  Pressure   1.00000 Atm.
 Atom     1 has atomic number 14 and mass  27.97693

 Molecular mass:    55.95386 amu.
 Principal axes and moments of inertia in atomic units:
                           1         2         3
     Eigenvalues --     0.00000 262.87060 262.87060
           X            0.00000   1.00000   0.00000
           Y            0.00000   0.00000   1.00000
           Z            1.00000   0.00000   0.00000
 This molecule is a prolate symmetric top.
 Rotational symmetry number  2.
 Rotational temperature (Kelvin)      0.32949
 Rotational constant (GHZ):           6.865512
 Zero-point vibrational energy       2679.0 (Joules/Mol)
                                    0.64031 (Kcal/Mol)
 Warning -- explicit consideration of   1 degrees of freedom as
           vibrations may cause significant error
 Vibrational temperatures:    644.43
          (Kelvin)

 Zero-point correction=                           0.001020 (Hartree/Particle)
 Thermal correction to Energy=                    0.003646
 Thermal correction to Enthalpy=                  0.004591
 Thermal correction to Gibbs Free Energy=        -0.021866
 Sum of electronic and zero-point Energies=           -578.572652
 Sum of electronic and thermal Energies=              -578.570026
 Sum of electronic and thermal Enthalpies=            -578.569082
 Sum of electronic and thermal Free Energies=         -578.595539

                     E (Thermal)             CV                S
                      KCal/Mol        Cal/Mol-Kelvin    Cal/Mol-Kelvin
 Total                    2.288              6.334             55.683
 Electronic               0.000              0.000              2.755
 Translational            0.889              2.981             37.987
 Rotational               0.592              1.987             14.138
 Vibrational              0.807              1.366              0.802
 Vibration     1          0.807              1.366              0.802

 Optimization completed.
    -- Stationary point found.
 Normal termination of Gaussian 09 at Sat Jan  7 10:07:12 2012.

 -----------------------------------------------------------------
 #N Geom=AllCheck Guess=TCheck SCRF=Check CCSD(T,E4T,FrzG4)/GTBas1
 -----------------------------------------------------------------

 si2-c-q
 -------
 Redundant internal coordinates taken from checkpoint file:
 S9L-ne-d-01.chk
 Charge =  1 Multiplicity = 4

 SCF Done:  E(UHF) =  -577.454743428     A.U. after   11 cycles
 E2 =    -0.1133681609D+00 EUMP2 =    -0.57756811158860D+03
 CCSD(T)= -0.57760463001D+03
 77.5968981\CCSD(T)=-577.60463\S2=3.76202\S2-1=3.755088\S2A=3.750007\RM
 Normal termination of Gaussian 09 at Sat Jan  7 10:07:16 2012.

 ---------------------------------------------------------
 #N Geom=AllCheck Guess=TCheck SCRF=Check MP4=FrzG4/GTBas2
 ---------------------------------------------------------

 si2-c-q
 -------
 Redundant internal coordinates taken from checkpoint file:
 S9L-ne-d-01.chk
 Charge =  1 Multiplicity = 4

 SCF Done:  E(UHF) =  -577.456070425     A.U. after   10 cycles
 E2 =    -0.1140478950D+00 EUMP2 =    -0.57757011831977D+03
 Normal termination of Gaussian 09 at Sat Jan  7 10:07:19 2012.

 ---------------------------------------------------------
 #N Geom=AllCheck Guess=TCheck SCRF=Check MP4=FrzG4/GTBas3
 ---------------------------------------------------------

 si2-c-q
 -------
 Redundant internal coordinates taken from checkpoint file:
 S9L-ne-d-01.chk
 Charge =  1 Multiplicity = 4

 SCF Done:  E(UHF) =  -577.469512017     A.U. after   11 cycles
 E2 =    -0.1327714369D+00 EUMP2 =    -0.57760228345398D+03
 Normal termination of Gaussian 09 at Sat Jan  7 10:07:24 2012.

 -----------------------------------------------------------
 #N Geom=AllCheck Guess=TCheck SCRF=Check MP2=Full/GTLargeXP
 -----------------------------------------------------------

 si2-c-q
 -------
 Redundant internal coordinates taken from checkpoint file:
 S9L-ne-d-01.chk
 Charge =  1 Multiplicity = 4

 SCF Done:  E(UHF) =  -577.508548758     A.U. after   11 cycles
 E2 =    -0.7202815970D+00 EUMP2 =    -0.57822883035507D+03
 Normal termination of Gaussian 09 at Sat Jan  7 10:08:06 2012.
 SCF Done:  E(UHF) =  -577.521136014     A.U. after    9 cycles
 Normal termination of Gaussian 09 at Sat Jan  7 10:08:18 2012.

                         Standard orientation:
 ---------------------------------------------------------------------
 Center     Atomic      Atomic             Coordinates (Angstroms)
 Number     Number       Type             X           Y           Z
 ---------------------------------------------------------------------
      1         14           0        0.000000    0.000000    1.146983
      2         14           0        0.000000    0.000000   -1.146983
 ---------------------------------------------------------------------

 SCF Done:  E(UHF) =  -577.522443323     A.U. after    9 cycles

 The electronic state is 4-SGG.
 Alpha  occ. eigenvalues --  -69.08084 -69.08084  -6.42270  -6.42242  -4.52828
 Alpha  occ. eigenvalues --   -4.52734  -4.52511  -4.52511  -4.52501  -4.52501
 Alpha  occ. eigenvalues --   -0.99294  -0.76216  -0.58419  -0.54687  -0.54687
 Alpha virt. eigenvalues --   -0.20778  -0.20778  -0.09663  -0.09190  -0.06855
 Alpha virt. eigenvalues --   -0.06855  -0.05564  -0.04397  -0.03804  -0.03804
 Alpha virt. eigenvalues --   -0.00043   0.01650   0.01650   0.03489   0.03898

  Beta  occ. eigenvalues --  -69.07274 -69.07274  -6.41409  -6.41402  -4.50979
  Beta  occ. eigenvalues --   -4.50979  -4.50972  -4.50972  -4.50725  -4.50649
  Beta  occ. eigenvalues --   -0.81442  -0.63205
  Beta virt. eigenvalues --   -0.23069  -0.21492  -0.21492  -0.12461  -0.12461
  Beta virt. eigenvalues --   -0.08041  -0.07562  -0.05909  -0.05909  -0.04717
  Beta virt. eigenvalues --   -0.03190  -0.03190  -0.00671   0.00958   0.06721

 Mulliken atomic charges:
              1
     1  Si   0.500000
     2  Si   0.500000
 Sum of Mulliken atomic charges =   1.00000

 Dipole moment (field-independent basis, Debye):
    X=              0.0000    Y=              0.0000    Z=              0.0000  Tot=              0.0000
 Quadrupole moment (field-independent basis, Debye-Ang):
   XX=            -21.8230   YY=            -21.8230   ZZ=            -12.1305
   XY=              0.0000   XZ=              0.0000   YZ=              0.0000

 Normal termination of Gaussian 09 at Sat Jan  7 10:09:43 2012.
