 Gaussian 09, Revision A.02,
 Gaussian 09:  AM64L-G09RevA.02 11-Jun-2009

 -----------------------
 # G4 scfcyc=500 scf=xqc
 -----------------------

 ------
 si10-c
 ------
 Symbolic Z-matrix:
 Charge =  1 Multiplicity = 2

 SCF Done:  E(UB3LYP) =  -2894.66620356     A.U. after   24 cycles
 SCF Done:  E(UB3LYP) =  -2894.66633739     A.U. after   14 cycles
 SCF Done:  E(UB3LYP) =  -2894.66642530     A.U. after   15 cycles
 SCF Done:  E(UB3LYP) =  -2894.66644815     A.U. after   15 cycles
 SCF Done:  E(UB3LYP) =  -2894.66645088     A.U. after   14 cycles
 SCF Done:  E(UB3LYP) =  -2894.66645237     A.U. after   12 cycles
 SCF Done:  E(UB3LYP) =  -2894.66645215     A.U. after   12 cycles
 Optimization completed.
    -- Stationary point found.
 Normal termination of Gaussian 09 at Thu Dec 22 11:23:14 2011.

 ----------------------------------------------------------
 #N Geom=AllCheck Guess=TCheck SCRF=Check B3LYP/GTBas3 Freq
 ----------------------------------------------------------

 si10-c
 ------
 Redundant internal coordinates taken from checkpoint file:
 S9L-ne-d-01.chk
 Charge =  1 Multiplicity = 2

 SCF Done:  E(UB3LYP) =  -2894.66645215     A.U. after    1 cycles

  Exact polarizability: 283.141  -0.014 276.898   1.716  -0.010 260.746
 Approx polarizability:1035.997  -0.187 998.248  21.432  -0.155 935.640

                     1                      2                      3
                     A                      A                      A
 Frequencies --    85.8362                88.7776               121.4632
 Red. masses --    27.9769                27.9769                27.9769
 Frc consts  --     0.1214                 0.1299                 0.2432
 IR Inten    --     0.3990                 0.2675                 0.2950

                     4                      5                      6
                     A                      A                      A
 Frequencies --   128.5458               173.8952               201.6490
 Red. masses --    27.9769                27.9769                27.9769
 Frc consts  --     0.2724                 0.4985                 0.6703
 IR Inten    --     0.4897                 0.0229                 0.0010

                     7                      8                      9
                     A                      A                      A
 Frequencies --   210.9282               218.8634               227.8227
 Red. masses --    27.9769                27.9769                27.9769
 Frc consts  --     0.7334                 0.7896                 0.8555
 IR Inten    --     1.5348                 1.0776                 0.4318

                    10                     11                     12
                     A                      A                      A
 Frequencies --   243.2622               251.3664               255.5953
 Red. masses --    27.9769                27.9769                27.9769
 Frc consts  --     0.9754                 1.0415                 1.0769
 IR Inten    --     0.1747                 0.8146                 0.2231

                    13                     14                     15
                     A                      A                      A
 Frequencies --   266.6840               272.9895               280.7438
 Red. masses --    27.9769                27.9769                27.9769
 Frc consts  --     1.1723                 1.2284                 1.2992
 IR Inten    --     0.2036                 2.3700                 0.0543

                    16                     17                     18
                     A                      A                      A
 Frequencies --   287.9789               328.6295               336.3586
 Red. masses --    27.9769                27.9769                27.9769
 Frc consts  --     1.3670                 1.7802                 1.8649
 IR Inten    --     0.0985                 0.0036                 2.7794

                    19                     20                     21
                     A                      A                      A
 Frequencies --   347.8369               366.4076               367.8337
 Red. masses --    27.9769                27.9769                27.9769
 Frc consts  --     1.9944                 2.2130                 2.2302
 IR Inten    --     0.4342                 0.1358                 0.8437

                    22                     23                     24
                     A                      A                      A
 Frequencies --   377.4800               411.9386               443.5565
 Red. masses --    27.9769                27.9769                27.9769
 Frc consts  --     2.3488                 2.7971                 3.2430
 IR Inten    --     8.2530                18.7780                 9.4175

 - Thermochemistry -
 -------------------
 Temperature   298.150 Kelvin.  Pressure   1.00000 Atm.
 Atom     1 has atomic number 14 and mass  27.97693

 Molecular mass:   279.76928 amu.
 Principal axes and moments of inertia in atomic units:
                           1         2         3
     Eigenvalues --  3206.559203289.469723551.28784
           X            1.00000   0.00000   0.00000
           Y            0.00000   1.00000   0.00000
           Z            0.00000   0.00000   1.00000
 This molecule is an asymmetric top.
 Rotational symmetry number  1.
 Warning -- assumption of classical behavior for rotation
           may cause significant error
 Rotational temperatures (Kelvin)      0.02701     0.02633     0.02439
 Rotational constants (GHZ):           0.56283     0.54864     0.50819
 Zero-point vibrational energy      37661.1 (Joules/Mol)
                                    9.00122 (Kcal/Mol)
 Warning -- explicit consideration of  24 degrees of freedom as
           vibrations may cause significant error
 Vibrational temperatures:    123.50   127.73   174.76   184.95   250.20
          (Kelvin)            290.13   303.48   314.90   327.79   350.00
                              361.66   367.74   383.70   392.77   403.93
                              414.34   472.82   483.94   500.46   527.18
                              529.23   543.11   592.69   638.18

 Zero-point correction=                           0.014344 (Hartree/Particle)
 Thermal correction to Energy=                    0.028795
 Thermal correction to Enthalpy=                  0.029739
 Thermal correction to Gibbs Free Energy=        -0.027321
 Sum of electronic and zero-point Energies=          -2894.652108
 Sum of electronic and thermal Energies=             -2894.637658
 Sum of electronic and thermal Enthalpies=           -2894.636713
 Sum of electronic and thermal Free Energies=        -2894.693773

                     E (Thermal)             CV                S
                      KCal/Mol        Cal/Mol-Kelvin    Cal/Mol-Kelvin
 Total                   18.069             47.250            120.093
 Electronic               0.000              0.000              1.377
 Translational            0.889              2.981             42.785
 Rotational               0.889              2.981             31.994
 Vibrational             16.291             41.288             43.937
 Vibration     1          0.601              1.959              3.753
 Vibration     2          0.602              1.957              3.687
 Vibration     3          0.609              1.931              3.077
 Vibration     4          0.611              1.925              2.968
 Vibration     5          0.627              1.875              2.393
 Vibration     6          0.639              1.838              2.118
 Vibration     7          0.643              1.824              2.036
 Vibration     8          0.647              1.812              1.968
 Vibration     9          0.651              1.799              1.896
 Vibration    10          0.659              1.774              1.779
 Vibration    11          0.663              1.760              1.721
 Vibration    12          0.666              1.753              1.692
 Vibration    13          0.672              1.734              1.618
 Vibration    14          0.676              1.723              1.577
 Vibration    15          0.680              1.709              1.529
 Vibration    16          0.685              1.696              1.486
 Vibration    17          0.712              1.618              1.267
 Vibration    18          0.717              1.603              1.229
 Vibration    19          0.725              1.580              1.176
 Vibration    20          0.739              1.541              1.095
 Vibration    21          0.740              1.538              1.089
 Vibration    22          0.748              1.518              1.049
 Vibration    23          0.776              1.444              0.920
 Vibration    24          0.803              1.375              0.816

 Normal termination of Gaussian 09 at Thu Dec 22 11:42:06 2011.

 -----------------------------------------------------------------
 #N Geom=AllCheck Guess=TCheck SCRF=Check CCSD(T,E4T,FrzG4)/GTBas1
 -----------------------------------------------------------------

 si10-c
 ------
 Redundant internal coordinates taken from checkpoint file:
 S9L-ne-d-01.chk
 Charge =  1 Multiplicity = 2

 SCF Done:  E(UHF) =  -2888.70711296     A.U. after   38 cycles
 E2 =    -0.9940474030D+00 EUMP2 =    -0.28897011603637D+04
 CCSD(T)= -0.28897686258D+04
 707016\CCSD(T)=-2889.7686258\S2=1.004955\S2-1=0.935625\S2A=0.805522\RM
 Normal termination of Gaussian 09 at Thu Dec 22 12:58:04 2011.

 ---------------------------------------------------------
 #N Geom=AllCheck Guess=TCheck SCRF=Check MP4=FrzG4/GTBas2
 ---------------------------------------------------------

 si10-c
 ------
 Redundant internal coordinates taken from checkpoint file:
 S9L-ne-d-01.chk
 Charge =  1 Multiplicity = 2

 SCF Done:  E(UHF) =  -2888.71852267     A.U. after   34 cycles
 E2 =    -0.1005140642D+01 EUMP2 =    -0.28897236633141D+04
 Normal termination of Gaussian 09 at Thu Dec 22 13:38:48 2011.

 ---------------------------------------------------------
 #N Geom=AllCheck Guess=TCheck SCRF=Check MP4=FrzG4/GTBas3
 ---------------------------------------------------------

 si10-c
 ------
 Redundant internal coordinates taken from checkpoint file:
 S9L-ne-d-01.chk
 Charge =  1 Multiplicity = 2

 SCF Done:  E(UHF) =  -2888.79319249     A.U. after   30 cycles
 E2 =    -0.1232405487D+01 EUMP2 =    -0.28900255979792D+04
 Normal termination of Gaussian 09 at Thu Dec 22 17:19:08 2011.

 -----------------------------------------------------------
 #N Geom=AllCheck Guess=TCheck SCRF=Check MP2=Full/GTLargeXP
 -----------------------------------------------------------

 si10-c
 ------
 Redundant internal coordinates taken from checkpoint file:
 S9L-ne-d-01.chk
 Charge =  1 Multiplicity = 2

 SCF Done:  E(UHF) =  -2888.98606068     A.U. after   26 cycles
 E2 =    -0.4196106692D+01 EUMP2 =    -0.28931821673713D+04
 Normal termination of Gaussian 09 at Fri Dec 23 06:43:13 2011.
 SCF Done:  E(UHF) =  -2889.04014183     A.U. after   20 cycles
 Normal termination of Gaussian 09 at Fri Dec 23 08:46:33 2011.

                         Standard orientation:
 ---------------------------------------------------------------------
 Center     Atomic      Atomic             Coordinates (Angstroms)
 Number     Number       Type             X           Y           Z
 ---------------------------------------------------------------------
      1         14           0       -0.296396   -2.161749   -1.265995
      2         14           0       -1.579899    0.003825   -1.105218
      3         14           0       -0.560615   -1.406422    1.014717
      4         14           0        1.807325   -1.423901    0.072975
      5         14           0        1.262938   -0.006684    2.028058
      6         14           0       -2.454036    0.002605    1.116424
      7         14           0        0.853791    0.002701   -1.699480
      8         14           0       -0.290292    2.166736   -1.259735
      9         14           0       -0.555130    1.404110    1.018412
     10         14           0        1.812315    1.418780    0.079844
 ---------------------------------------------------------------------

 SCF Done:  E(UHF) =  -2889.05015299     A.U. after   22 cycles

 The electronic state is 2-A.
 Alpha  occ. eigenvalues --  -68.97412 -68.96897 -68.96889 -68.96868 -68.96169
 Alpha  occ. eigenvalues --  -68.95942 -68.95939 -68.95315 -68.95245 -68.95242
 Alpha  occ. eigenvalues --   -6.32084  -6.31276  -6.31267  -6.31259  -6.30736
 Alpha  occ. eigenvalues --   -6.30569  -6.30564  -6.29779  -6.29679  -6.29675
 Alpha  occ. eigenvalues --   -4.42918  -4.42255  -4.42205  -4.41511  -4.41473
 Alpha  occ. eigenvalues --   -4.41466  -4.41401  -4.41366  -4.41360  -4.41310
 Alpha  occ. eigenvalues --   -4.41287  -4.41277  -4.41225  -4.40988  -4.40956
 Alpha  occ. eigenvalues --   -4.40949  -4.40924  -4.40856  -4.40852  -4.40757
 Alpha  occ. eigenvalues --   -4.40753  -4.40254  -4.39886  -4.39856  -4.39853
 Alpha  occ. eigenvalues --   -4.39760  -4.39756  -4.39744  -4.39703  -4.39699
 Alpha  occ. eigenvalues --   -1.05054  -0.91967  -0.90916  -0.90255  -0.74268
 Alpha  occ. eigenvalues --   -0.71456  -0.71256  -0.69617  -0.68785  -0.61457
 Alpha  occ. eigenvalues --   -0.50429  -0.49811  -0.48422  -0.48286  -0.47716
 Alpha  occ. eigenvalues --   -0.46847  -0.46681  -0.45659  -0.45601  -0.44963
 Alpha virt. eigenvalues --   -0.17704  -0.15111  -0.14750  -0.11086  -0.09914
 Alpha virt. eigenvalues --   -0.09213  -0.07960  -0.07880  -0.07608  -0.07116
 Alpha virt. eigenvalues --   -0.06570  -0.06330  -0.05754  -0.05669  -0.05119

  Beta  occ. eigenvalues --  -68.96872 -68.96840 -68.96832 -68.96799 -68.96079
  Beta  occ. eigenvalues --  -68.96076 -68.96023 -68.95232 -68.95228 -68.95206
  Beta  occ. eigenvalues --   -6.31307  -6.31210  -6.31208  -6.31201  -6.30751
  Beta  occ. eigenvalues --   -6.30746  -6.30544  -6.29669  -6.29662  -6.29658
  Beta  occ. eigenvalues --   -4.41863  -4.41844  -4.41389  -4.41316  -4.41309
  Beta  occ. eigenvalues --   -4.41283  -4.41277  -4.41272  -4.41263  -4.41217
  Beta  occ. eigenvalues --   -4.41161  -4.41152  -4.41133  -4.41130  -4.41031
  Beta  occ. eigenvalues --   -4.41027  -4.40936  -4.40930  -4.40876  -4.40798
  Beta  occ. eigenvalues --   -4.40692  -4.39953  -4.39825  -4.39821  -4.39786
  Beta  occ. eigenvalues --   -4.39770  -4.39766  -4.39650  -4.39645  -4.39446
  Beta  occ. eigenvalues --   -1.04200  -0.90821  -0.90416  -0.88525  -0.72529
  Beta  occ. eigenvalues --   -0.70905  -0.70372  -0.69799  -0.65413  -0.59495
  Beta  occ. eigenvalues --   -0.49509  -0.48809  -0.47356  -0.47269  -0.46801
  Beta  occ. eigenvalues --   -0.46512  -0.45633  -0.45575  -0.44874
  Beta virt. eigenvalues --   -0.20182  -0.16563  -0.15877  -0.12942  -0.10767
  Beta virt. eigenvalues --   -0.09057  -0.08985  -0.07808  -0.07801  -0.07142
  Beta virt. eigenvalues --   -0.06660  -0.06514  -0.05915  -0.05382  -0.04875

 Mulliken atomic charges:
              1
     1  Si   0.006430
     2  Si   0.131254
     3  Si   0.215011
     4  Si   0.104381
     5  Si   0.014971
     6  Si   0.013152
     7  Si   0.188412
     8  Si   0.006628
     9  Si   0.215477
    10  Si   0.104285
 Sum of Mulliken atomic charges =   1.00000

 Dipole moment (field-independent basis, Debye):
    X=             -0.4034    Y=              0.0022    Z=             -0.0547  Tot=              0.4071
 Quadrupole moment (field-independent basis, Debye-Ang):
   XX=           -111.5451   YY=           -115.4388   ZZ=           -115.4819
   XY=              0.0006   XZ=             -3.2245   YZ=             -0.0033

 Normal termination of Gaussian 09 at Fri Dec 23 22:50:13 2011.
