 Gaussian 09, Revision A.02,
 Gaussian 09:  AM64L-G09RevA.02 11-Jun-2009

 -----------------------
 # G4 scfcyc=500 scf=xqc
 -----------------------

 -------------
 Si-an-quartet
 -------------
 Symbolic Z-matrix:
 Charge = -1 Multiplicity = 4

 SCF Done:  E(UB3LYP) =  -289.407004091     A.U. after   10 cycles
 Optimization completed.
    -- Stationary point found.
 Normal termination of Gaussian 09 at Tue Dec  6 18:51:13 2011.

 ----------------------------------------------------------
 #N Geom=AllCheck Guess=TCheck SCRF=Check B3LYP/GTBas3 Freq
 ----------------------------------------------------------

 -------------
 No Z-matrix found on checkpoint file.
 Cartesian coordinates read from the checkpoint file:
 S7B-ne-d-04.chk
 Charge = -1 Multiplicity = 4

 SCF Done:  E(UB3LYP) =  -289.407004091     A.U. after    1 cycles

  Exact polarizability:  33.605   0.000  33.605   0.000   0.000  33.605
 Approx polarizability:  44.337   0.000  44.337   0.000   0.000  44.337

 - Thermochemistry -
 -------------------
 Temperature   298.150 Kelvin.  Pressure   1.00000 Atm.
 Atom     1 has atomic number 14 and mass  27.97693
 Molecular mass:    27.97693 amu.
 Zero-point vibrational energy          0.0 (Joules/Mol)
                                    0.00000 (Kcal/Mol)
 Vibrational temperatures:
          (Kelvin)

 Zero-point correction=                           0.000000 (Hartree/Particle)
 Thermal correction to Energy=                    0.001416
 Thermal correction to Enthalpy=                  0.002360
 Thermal correction to Gibbs Free Energy=        -0.016016
 Sum of electronic and zero-point Energies=           -289.407004
 Sum of electronic and thermal Energies=              -289.405588
 Sum of electronic and thermal Enthalpies=            -289.404644
 Sum of electronic and thermal Free Energies=         -289.423020

                     E (Thermal)             CV                S
                      KCal/Mol        Cal/Mol-Kelvin    Cal/Mol-Kelvin
 Total                    0.889              2.981             38.676
 Electronic               0.000              0.000              2.755
 Translational            0.889              2.981             35.921
 Rotational               0.000              0.000              0.000
 Vibrational              0.000              0.000              0.000

 Optimization completed.
    -- Stationary point found.
 Normal termination of Gaussian 09 at Tue Dec  6 18:51:17 2011.

 -----------------------------------------------------------------
 #N Geom=AllCheck Guess=TCheck SCRF=Check CCSD(T,E4T,FrzG4)/GTBas1
 -----------------------------------------------------------------

 -------------
 No Z-matrix found on checkpoint file.
 Cartesian coordinates read from the checkpoint file:
 S7B-ne-d-04.chk
 Charge = -1 Multiplicity = 4

 SCF Done:  E(UHF) =  -288.854862210     A.U. after    8 cycles
 E2 =    -0.4515859331D-01 EUMP2 =    -0.28890002080363D+03
 CCSD(T)= -0.28891457765D+03
 =-288.9110544\MP4SDQ=-288.9133683\CCSD=-288.9136115\CCSD(T)=-288.91457
 Normal termination of Gaussian 09 at Tue Dec  6 18:51:19 2011.

 ---------------------------------------------------------
 #N Geom=AllCheck Guess=TCheck SCRF=Check MP4=FrzG4/GTBas2
 ---------------------------------------------------------

 -------------
 No Z-matrix found on checkpoint file.
 Cartesian coordinates read from the checkpoint file:
 S7B-ne-d-04.chk
 Charge = -1 Multiplicity = 4

 SCF Done:  E(UHF) =  -288.864777825     A.U. after   10 cycles
 E2 =    -0.4742934975D-01 EUMP2 =    -0.28891220717491D+03
 Normal termination of Gaussian 09 at Tue Dec  6 18:51:20 2011.

 ---------------------------------------------------------
 #N Geom=AllCheck Guess=TCheck SCRF=Check MP4=FrzG4/GTBas3
 ---------------------------------------------------------

 -------------
 No Z-matrix found on checkpoint file.
 Cartesian coordinates read from the checkpoint file:
 S7B-ne-d-04.chk
 Charge = -1 Multiplicity = 4

 SCF Done:  E(UHF) =  -288.855061662     A.U. after    9 cycles
 E2 =    -0.6921189039D-01 EUMP2 =    -0.28892427355198D+03
 Normal termination of Gaussian 09 at Tue Dec  6 18:51:22 2011.

 -----------------------------------------------------------
 #N Geom=AllCheck Guess=TCheck SCRF=Check MP2=Full/GTLargeXP
 -----------------------------------------------------------

 -------------
 No Z-matrix found on checkpoint file.
 Cartesian coordinates read from the checkpoint file:
 S7B-ne-d-04.chk
 Charge = -1 Multiplicity = 4

 SCF Done:  E(UHF) =  -288.883073056     A.U. after   11 cycles
 E2 =    -0.3643868739D+00 EUMP2 =    -0.28924745992958D+03
 Normal termination of Gaussian 09 at Tue Dec  6 18:51:26 2011.
 SCF Done:  E(UHF) =  -288.889654111     A.U. after    9 cycles
 Normal termination of Gaussian 09 at Tue Dec  6 18:51:29 2011.

                         Standard orientation:
 ---------------------------------------------------------------------
 Center     Atomic      Atomic             Coordinates (Angstroms)
 Number     Number       Type             X           Y           Z
 ---------------------------------------------------------------------
      1         14           0        0.000000    0.000000    0.000000
 ---------------------------------------------------------------------

 SCF Done:  E(UHF) =  -288.889977398     A.U. after    8 cycles

 The electronic state is 4-A1G.
 Alpha  occ. eigenvalues --  -68.55913  -5.90302  -4.01009  -4.01009  -4.01009
 Alpha  occ. eigenvalues --   -0.40063  -0.06202  -0.06202  -0.06202
 Alpha virt. eigenvalues --    0.16483   0.16483   0.16483   0.17876   0.42591
 Alpha virt. eigenvalues --    0.42591   0.42591   0.45249   0.46257   0.46257
 Alpha virt. eigenvalues --    0.46257   0.46257   0.46257   0.80261   0.80261

  Beta  occ. eigenvalues --  -68.54824  -5.89194  -3.98699  -3.98699  -3.98699
  Beta  occ. eigenvalues --   -0.20412
  Beta virt. eigenvalues --    0.15721   0.15721   0.15721   0.19397   0.27536
  Beta virt. eigenvalues --    0.27536   0.27536   0.48900   0.49001   0.49001
  Beta virt. eigenvalues --    0.49001   0.54854   0.54854   0.54854   0.54854

 Mulliken atomic charges:
              1
     1  Si  -1.000000
 Sum of Mulliken atomic charges =  -1.00000

 Dipole moment (field-independent basis, Debye):
    X=              0.0000    Y=              0.0000    Z=              0.0000  Tot=              0.0000
 Quadrupole moment (field-independent basis, Debye-Ang):
   XX=            -24.5682   YY=            -24.5682   ZZ=            -24.5682
   XY=              0.0000   XZ=              0.0000   YZ=              0.0000

 Normal termination of Gaussian 09 at Tue Dec  6 18:51:41 2011.
