 Gaussian 09, Revision A.02,
 Gaussian 09:  AM64L-G09RevA.02 11-Jun-2009

 -----------------------
 # G4 scfcyc=500 scf=xqc
 -----------------------

 -----
 si6-n
 -----
 Symbolic Z-matrix:
 Charge =  0 Multiplicity = 1

 SCF Done:  E(RB3LYP) =  -1736.92649169     A.U. after   15 cycles
 SCF Done:  E(RB3LYP) =  -1736.92653783     A.U. after    9 cycles
 SCF Done:  E(RB3LYP) =  -1736.92656763     A.U. after    9 cycles
 SCF Done:  E(RB3LYP) =  -1736.92658104     A.U. after    9 cycles
 SCF Done:  E(RB3LYP) =  -1736.92659471     A.U. after   11 cycles
 SCF Done:  E(RB3LYP) =  -1736.92659637     A.U. after    9 cycles
 SCF Done:  E(RB3LYP) =  -1736.92659664     A.U. after    8 cycles
 Optimization completed.
    -- Stationary point found.
 Normal termination of Gaussian 09 at Tue Dec 20 22:06:59 2011.

 ----------------------------------------------------------
 #N Geom=AllCheck Guess=TCheck SCRF=Check B3LYP/GTBas3 Freq
 ----------------------------------------------------------

 si6-n
 -----
 Redundant internal coordinates taken from checkpoint file:
 S9L-ne-d-01.chk
 Charge =  0 Multiplicity = 1

 SCF Done:  E(RB3LYP) =  -1736.92659664     A.U. after    1 cycles

  Exact polarizability: 189.254   0.000 147.974   0.000   0.000 192.971
 Approx polarizability: 518.669   0.000 442.056   0.000   0.000 548.781

                     1                      2                      3
                    B1                     A1                     B2
 Frequencies --    28.9074                83.9078               127.6755
 Red. masses --    27.9769                27.9769                27.9769
 Frc consts  --     0.0138                 0.1161                 0.2687
 IR Inten    --     0.3969                 0.0017                 0.0026

                     4                      5                      6
                    B1                     B2                     A1
 Frequencies --   267.7837               302.7432               315.4770
 Red. masses --    27.9769                27.9769                27.9769
 Frc consts  --     1.1820                 1.5108                 1.6405
 IR Inten    --     0.3574                 1.2248                 0.0000

                     7                      8                      9
                    A2                     A1                     B2
 Frequencies --   364.4546               369.7332               395.1718
 Red. masses --    27.9769                27.9769                27.9769
 Frc consts  --     2.1895                 2.2533                 2.5741
 IR Inten    --     0.0000                 0.3113                 0.4255

                    10                     11                     12
                    A1                     B1                     A1
 Frequencies --   440.0083               441.2375               460.5389
 Red. masses --    27.9769                27.9769                27.9769
 Frc consts  --     3.1913                 3.2092                 3.4961
 IR Inten    --     1.5056                22.0730                19.0204

 - Thermochemistry -
 -------------------
 Temperature   298.150 Kelvin.  Pressure   1.00000 Atm.
 Atom     1 has atomic number 14 and mass  27.97693

 Molecular mass:   167.86157 amu.
 Principal axes and moments of inertia in atomic units:
                           1         2         3
     Eigenvalues --  1121.499011155.201111547.24303
           X            0.00000   1.00000   0.00000
           Y            0.00000   0.00000   1.00000
           Z            1.00000   0.00000   0.00000
 This molecule is an asymmetric top.
 Rotational symmetry number  2.
 Warning -- assumption of classical behavior for rotation
           may cause significant error
 Rotational temperatures (Kelvin)      0.07723     0.07498     0.05598
 Rotational constants (GHZ):           1.60922     1.56227     1.16642
 Zero-point vibrational energy      21518.7 (Joules/Mol)
                                    5.14308 (Kcal/Mol)
 Warning -- explicit consideration of  12 degrees of freedom as
           vibrations may cause significant error
 Vibrational temperatures:     41.59   120.72   183.70   385.28   435.58
          (Kelvin)            453.90   524.37   531.96   568.56   633.07
                              634.84   662.61

 Zero-point correction=                           0.008196 (Hartree/Particle)
 Thermal correction to Energy=                    0.016436
 Thermal correction to Enthalpy=                  0.017380
 Thermal correction to Gibbs Free Energy=        -0.026130
 Sum of electronic and zero-point Energies=          -1736.918401
 Sum of electronic and thermal Energies=             -1736.910161
 Sum of electronic and thermal Enthalpies=           -1736.909217
 Sum of electronic and thermal Free Energies=        -1736.952727

                     E (Thermal)             CV                S
                      KCal/Mol        Cal/Mol-Kelvin    Cal/Mol-Kelvin
 Total                   10.314             25.537             91.574
 Electronic               0.000              0.000              0.000
 Translational            0.889              2.981             41.262
 Rotational               0.889              2.981             27.707
 Vibrational              8.536             19.576             22.605
 Vibration     1          0.593              1.984              5.903
 Vibration     2          0.601              1.960              3.797
 Vibration     3          0.611              1.926              2.981
 Vibration     4          0.673              1.732              1.610
 Vibration     5          0.694              1.669              1.402
 Vibration     6          0.703              1.644              1.333
 Vibration     7          0.738              1.545              1.103
 Vibration     8          0.742              1.534              1.081
 Vibration     9          0.762              1.480              0.981
 Vibration    10          0.800              1.383              0.827
 Vibration    11          0.801              1.380              0.823
 Vibration    12          0.818              1.338              0.765

 Optimization completed.
    -- Stationary point found.
 Normal termination of Gaussian 09 at Tue Dec 20 22:08:30 2011.

 -----------------------------------------------------------------
 #N Geom=AllCheck Guess=TCheck SCRF=Check CCSD(T,E4T,FrzG4)/GTBas1
 -----------------------------------------------------------------

 si6-n
 -----
 Redundant internal coordinates taken from checkpoint file:
 S9L-ne-d-01.chk
 Charge =  0 Multiplicity = 1

 SCF Done:  E(RHF) =  -1733.35932190     A.U. after   15 cycles
 E2 =    -0.5718225452D+00 EUMP2 =    -0.17339311444480D+04
 CCSD(T)= -0.17339816265D+04
 79362\CCSD=-1733.9321878\CCSD(T)=-1733.9816265\RMSD=2.488e-09\PG=C02V
 Normal termination of Gaussian 09 at Tue Dec 20 22:09:16 2011.

 ---------------------------------------------------------
 #N Geom=AllCheck Guess=TCheck SCRF=Check MP4=FrzG4/GTBas2
 ---------------------------------------------------------

 si6-n
 -----
 Redundant internal coordinates taken from checkpoint file:
 S9L-ne-d-01.chk
 Charge =  0 Multiplicity = 1

 SCF Done:  E(RHF) =  -1733.36222339     A.U. after   11 cycles
 E2 =    -0.5767860267D+00 EUMP2 =    -0.17339390094183D+04
 Normal termination of Gaussian 09 at Tue Dec 20 22:09:42 2011.

 ---------------------------------------------------------
 #N Geom=AllCheck Guess=TCheck SCRF=Check MP4=FrzG4/GTBas3
 ---------------------------------------------------------

 si6-n
 -----
 Redundant internal coordinates taken from checkpoint file:
 S9L-ne-d-01.chk
 Charge =  0 Multiplicity = 1

 SCF Done:  E(RHF) =  -1733.40929880     A.U. after   14 cycles
 E2 =    -0.7070026966D+00 EUMP2 =    -0.17341163014966D+04
 Normal termination of Gaussian 09 at Tue Dec 20 22:11:41 2011.

 -----------------------------------------------------------
 #N Geom=AllCheck Guess=TCheck SCRF=Check MP2=Full/GTLargeXP
 -----------------------------------------------------------

 si6-n
 -----
 Redundant internal coordinates taken from checkpoint file:
 S9L-ne-d-01.chk
 Charge =  0 Multiplicity = 1

 SCF Done:  E(RHF) =  -1733.52503656     A.U. after   12 cycles
 E2 =    -0.2485576462D+01 EUMP2 =    -0.17360106130261D+04
 Normal termination of Gaussian 09 at Tue Dec 20 22:21:32 2011.
 SCF Done:  E(RHF) =  -1733.55758308     A.U. after   10 cycles
 Normal termination of Gaussian 09 at Tue Dec 20 22:26:30 2011.

                         Standard orientation:
 ---------------------------------------------------------------------
 Center     Atomic      Atomic             Coordinates (Angstroms)
 Number     Number       Type             X           Y           Z
 ---------------------------------------------------------------------
      1         14           0        0.000000    1.351049    0.153277
      2         14           0        0.000000    0.000000    2.067892
      3         14           0        0.000000    0.000000   -1.859051
      4         14           0       -1.946114    0.000000   -0.257697
      5         14           0        1.946114    0.000000   -0.257697
      6         14           0        0.000000   -1.351049    0.153277
 ---------------------------------------------------------------------

 SCF Done:  E(RHF) =  -1733.56336940     A.U. after   10 cycles

 The electronic state is 1-A1.
 Alpha  occ. eigenvalues --  -68.82208 -68.81136 -68.81136 -68.80664 -68.78883
 Alpha  occ. eigenvalues --  -68.78883  -6.16549  -6.15496  -6.15496  -6.15125
 Alpha  occ. eigenvalues --   -6.13775  -6.13770  -4.26650  -4.26632  -4.26611
 Alpha  occ. eigenvalues --   -4.25614  -4.25614  -4.25612  -4.25612  -4.25585
 Alpha  occ. eigenvalues --   -4.25584  -4.25316  -4.25290  -4.25240  -4.24146
 Alpha  occ. eigenvalues --   -4.24130  -4.24041  -4.24040  -4.24036  -4.24035
 Alpha  occ. eigenvalues --   -0.88047  -0.66836  -0.65933  -0.60767  -0.47279
 Alpha  occ. eigenvalues --   -0.43806  -0.34922  -0.33855  -0.33493  -0.32923
 Alpha  occ. eigenvalues --   -0.30471  -0.30223
 Alpha virt. eigenvalues --   -0.00722   0.00880   0.01058   0.01371   0.02532
 Alpha virt. eigenvalues --    0.02698   0.03256   0.03580   0.04188   0.04330
 Alpha virt. eigenvalues --    0.05308   0.05431   0.05499   0.06764   0.06902

 Mulliken atomic charges:
              1
     1  Si  -0.057760
     2  Si   0.079372
     3  Si  -0.008528
     4  Si   0.022338
     5  Si   0.022338
     6  Si  -0.057760
 Sum of Mulliken atomic charges =   0.00000

 Dipole moment (field-independent basis, Debye):
    X=              0.0000    Y=              0.0000    Z=              0.1962  Tot=              0.1962
 Quadrupole moment (field-independent basis, Debye-Ang):
   XX=            -84.7622   YY=            -77.6247   ZZ=            -82.9909
   XY=              0.0000   XZ=              0.0000   YZ=              0.0000

 Normal termination of Gaussian 09 at Tue Dec 20 22:59:46 2011.
