 Gaussian 09, Revision A.02,
 Gaussian 09:  AM64L-G09RevA.02 11-Jun-2009

 -----------------------
 # G4 scfcyc=500 scf=xqc
 -----------------------

 --------
 si6-an-d
 --------
 Symbolic Z-matrix:
 Charge = -1 Multiplicity = 2

 SCF Done:  E(UB3LYP) =  -1737.00003560     A.U. after   17 cycles
 SCF Done:  E(UB3LYP) =  -1737.00012280     A.U. after   11 cycles
 SCF Done:  E(UB3LYP) =  -1737.00017509     A.U. after   11 cycles
 SCF Done:  E(UB3LYP) =  -1737.00017704     A.U. after   10 cycles
 SCF Done:  E(UB3LYP) =  -1737.00017727     A.U. after   10 cycles
 Optimization completed.
    -- Stationary point found.
 Normal termination of Gaussian 09 at Mon Mar  5 12:11:23 2012.

 ----------------------------------------------------------
 #N Geom=AllCheck Guess=TCheck SCRF=Check B3LYP/GTBas3 Freq
 ----------------------------------------------------------

 si6-an-d
 --------
 Redundant internal coordinates taken from checkpoint file:
 S9L-ne-d-01.chk
 Charge = -1 Multiplicity = 2

 SCF Done:  E(UB3LYP) =  -1737.00017727     A.U. after    1 cycles

  Exact polarizability: 158.611   0.000 240.407   0.000   0.000 194.653
 Approx polarizability: 442.124   0.000 651.121   0.000   0.000 498.096

                     1                      2                      3
                    A2                     A1                     B1
 Frequencies --   119.3054               149.4193               210.4312
 Red. masses --    27.9769                27.9769                27.9769
 Frc consts  --     0.2346                 0.3680                 0.7299
 IR Inten    --     0.0000                 0.0376                 4.3557

                     4                      5                      6
                    B2                     B2                     B1
 Frequencies --   239.5422               284.9269               296.3834
 Red. masses --    27.9769                27.9769                27.9769
 Frc consts  --     0.9458                 1.3382                 1.4480
 IR Inten    --     3.2372                 1.4089                 0.0000

                     7                      8                      9
                    A1                     A1                     A2
 Frequencies --   312.6730               345.5493               348.9227
 Red. masses --    27.9769                27.9769                27.9769
 Frc consts  --     1.6115                 1.9682                 2.0068
 IR Inten    --     0.0413                 0.0017                 0.0000

                    10                     11                     12
                    A1                     A1                     B2
 Frequencies --   424.4777               437.3278               443.0922
 Red. masses --    27.9769                27.9769                27.9769
 Frc consts  --     2.9700                 3.1526                 3.2362
 IR Inten    --     0.4873                 0.0019                 4.1910

 - Thermochemistry -
 -------------------
 Temperature   298.150 Kelvin.  Pressure   1.00000 Atm.
 Atom     1 has atomic number 14 and mass  27.97693

 Molecular mass:   167.86157 amu.
 Principal axes and moments of inertia in atomic units:
                           1         2         3
     Eigenvalues --   933.777501366.766051661.11788
           X            0.00000   0.00000   1.00000
           Y            1.00000   0.00000   0.00000
           Z            0.00000   1.00000   0.00000
 This molecule is an asymmetric top.
 Rotational symmetry number  2.
 Warning -- assumption of classical behavior for rotation
           may cause significant error
 Rotational temperatures (Kelvin)      0.09276     0.06337     0.05214
 Rotational constants (GHZ):           1.93273     1.32045     1.08646
 Zero-point vibrational energy      21604.9 (Joules/Mol)
                                    5.16369 (Kcal/Mol)
 Warning -- explicit consideration of  12 degrees of freedom as
           vibrations may cause significant error
 Vibrational temperatures:    171.65   214.98   302.76   344.65   409.95
          (Kelvin)            426.43   449.87   497.17   502.02   610.73
                              629.22   637.51

 Zero-point correction=                           0.008229 (Hartree/Particle)
 Thermal correction to Energy=                    0.016278
 Thermal correction to Enthalpy=                  0.017222
 Thermal correction to Gibbs Free Energy=        -0.025167
 Sum of electronic and zero-point Energies=          -1736.991948
 Sum of electronic and thermal Energies=             -1736.983899
 Sum of electronic and thermal Enthalpies=           -1736.982955
 Sum of electronic and thermal Free Energies=        -1737.025344

                     E (Thermal)             CV                S
                      KCal/Mol        Cal/Mol-Kelvin    Cal/Mol-Kelvin
 Total                   10.215             25.778             89.215
 Electronic               0.000              0.000              1.377
 Translational            0.889              2.981             41.262
 Rotational               0.889              2.981             27.763
 Vibrational              8.437             19.817             18.813
 Vibration     1          0.609              1.933              3.112
 Vibration     2          0.618              1.903              2.680
 Vibration     3          0.643              1.825              2.040
 Vibration     4          0.657              1.780              1.806
 Vibration     5          0.683              1.702              1.504
 Vibration     6          0.690              1.680              1.437
 Vibration     7          0.701              1.650              1.348
 Vibration     8          0.724              1.584              1.186
 Vibration     9          0.726              1.577              1.171
 Vibration    10          0.786              1.417              0.877
 Vibration    11          0.798              1.389              0.835
 Vibration    12          0.803              1.376              0.817

 Optimization completed.
    -- Stationary point found.
 Normal termination of Gaussian 09 at Mon Mar  5 12:13:02 2012.

 -----------------------------------------------------------------
 #N Geom=AllCheck Guess=TCheck SCRF=Check CCSD(T,E4T,FrzG4)/GTBas1
 -----------------------------------------------------------------

 si6-an-d
 --------
 Redundant internal coordinates taken from checkpoint file:
 S9L-ne-d-01.chk
 Charge = -1 Multiplicity = 2

 SCF Done:  E(UHF) =  -1733.43078276     A.U. after   21 cycles
 E2 =    -0.5605194476D+00 EUMP2 =    -0.17339913022057D+04
 CCSD(T)= -0.17340483296D+04
 05345\MP4SDQ=-1734.0053552\CCSD=-1734.0011863\CCSD(T)=-1734.0483296\S2
 Normal termination of Gaussian 09 at Mon Mar  5 12:14:49 2012.

 ---------------------------------------------------------
 #N Geom=AllCheck Guess=TCheck SCRF=Check MP4=FrzG4/GTBas2
 ---------------------------------------------------------

 si6-an-d
 --------
 Redundant internal coordinates taken from checkpoint file:
 S9L-ne-d-01.chk
 Charge = -1 Multiplicity = 2

 SCF Done:  E(UHF) =  -1733.43482488     A.U. after   18 cycles
 E2 =    -0.5699543029D+00 EUMP2 =    -0.17340047791843D+04
 Normal termination of Gaussian 09 at Mon Mar  5 12:15:37 2012.

 ---------------------------------------------------------
 #N Geom=AllCheck Guess=TCheck SCRF=Check MP4=FrzG4/GTBas3
 ---------------------------------------------------------

 si6-an-d
 --------
 Redundant internal coordinates taken from checkpoint file:
 S9L-ne-d-01.chk
 Charge = -1 Multiplicity = 2

 SCF Done:  E(UHF) =  -1733.47150049     A.U. after   19 cycles
 E2 =    -0.7066520207D+00 EUMP2 =    -0.17341781525156D+04
 Normal termination of Gaussian 09 at Mon Mar  5 12:19:17 2012.

 -----------------------------------------------------------
 #N Geom=AllCheck Guess=TCheck SCRF=Check MP2=Full/GTLargeXP
 -----------------------------------------------------------

 si6-an-d
 --------
 Redundant internal coordinates taken from checkpoint file:
 S9L-ne-d-01.chk
 Charge = -1 Multiplicity = 2

 SCF Done:  E(UHF) =  -1733.58826958     A.U. after   18 cycles
 E2 =    -0.2487234730D+01 EUMP2 =    -0.17360755043061D+04
 Normal termination of Gaussian 09 at Mon Mar  5 12:33:04 2012.
 SCF Done:  E(UHF) =  -1733.62117302     A.U. after   16 cycles
 Normal termination of Gaussian 09 at Mon Mar  5 12:38:46 2012.

                         Standard orientation:
 ---------------------------------------------------------------------
 Center     Atomic      Atomic             Coordinates (Angstroms)
 Number     Number       Type             X           Y           Z
 ---------------------------------------------------------------------
      1         14           0        0.000000    1.166032    1.400069
      2         14           0        0.000000    1.969895   -0.957794
      3         14           0        0.000000   -1.166032    1.400069
      4         14           0        0.000000   -1.969895   -0.957794
      5         14           0        1.264929    0.000000   -0.442274
      6         14           0       -1.264929    0.000000   -0.442274
 ---------------------------------------------------------------------

 SCF Done:  E(UHF) =  -1733.62683196     A.U. after   14 cycles

 The electronic state is 2-B2.
 Alpha  occ. eigenvalues --  -68.64000 -68.64000 -68.63478 -68.63478 -68.62598
 Alpha  occ. eigenvalues --  -68.62598  -5.98506  -5.98506  -5.98024  -5.98008
 Alpha  occ. eigenvalues --   -5.97295  -5.97287  -4.09157  -4.09157  -4.08666
 Alpha  occ. eigenvalues --   -4.08665  -4.08608  -4.08608  -4.08519  -4.08509
 Alpha  occ. eigenvalues --   -4.08255  -4.08248  -4.08141  -4.08073  -4.07703
 Alpha  occ. eigenvalues --   -4.07673  -4.07605  -4.07603  -4.07544  -4.07541
 Alpha  occ. eigenvalues --   -0.71304  -0.54790  -0.48413  -0.41915  -0.32620
 Alpha  occ. eigenvalues --   -0.31492  -0.22085  -0.18887  -0.16992  -0.15813
 Alpha  occ. eigenvalues --   -0.14572  -0.13800  -0.10456
 Alpha virt. eigenvalues --    0.11148   0.11304   0.11448   0.11452   0.12237
 Alpha virt. eigenvalues --    0.12487   0.14049   0.14332   0.14407   0.14650
 Alpha virt. eigenvalues --    0.15205   0.15655   0.15913   0.16008   0.16135

  Beta  occ. eigenvalues --  -68.63719 -68.63719 -68.63391 -68.63390 -68.62675
  Beta  occ. eigenvalues --  -68.62675  -5.98184  -5.98184  -5.97917  -5.97900
  Beta  occ. eigenvalues --   -5.97396  -5.97388  -4.08431  -4.08431  -4.08427
  Beta  occ. eigenvalues --   -4.08427  -4.08302  -4.08231  -4.08222  -4.08213
  Beta  occ. eigenvalues --   -4.07925  -4.07912  -4.07894  -4.07892  -4.07805
  Beta  occ. eigenvalues --   -4.07790  -4.07761  -4.07747  -4.07658  -4.07657
  Beta  occ. eigenvalues --   -0.70757  -0.51728  -0.47013  -0.42308  -0.29753
  Beta  occ. eigenvalues --   -0.28199  -0.18254  -0.18208  -0.15793  -0.15163
  Beta  occ. eigenvalues --   -0.14716  -0.13057
  Beta virt. eigenvalues --    0.11155   0.11312   0.11442   0.11470   0.12205
  Beta virt. eigenvalues --    0.12493   0.13702   0.14053   0.14442   0.14503
  Beta virt. eigenvalues --    0.14717   0.15289   0.15958   0.16020   0.16054

 Mulliken atomic charges:
              1
     1  Si  -0.165180
     2  Si  -0.189314
     3  Si  -0.165180
     4  Si  -0.189314
     5  Si  -0.145506
     6  Si  -0.145506
 Sum of Mulliken atomic charges =  -1.00000

 Dipole moment (field-independent basis, Debye):
    X=              0.0000    Y=              0.0000    Z=              0.1028  Tot=              0.1028
 Quadrupole moment (field-independent basis, Debye-Ang):
   XX=            -91.4620   YY=           -108.2401   ZZ=           -100.3707
   XY=              0.0000   XZ=              0.0000   YZ=              0.0000

 Normal termination of Gaussian 09 at Mon Mar  5 13:12:37 2012.
