 Gaussian 09, Revision A.02,
 Gaussian 09:  AM64L-G09RevA.02 11-Jun-2009

 ---------------------------------------
 # G4 opt=(Cartesian) scfcyc=500 scf=xqc
 ---------------------------------------

 -------
 si4-a-d
 -------
 Symbolic Z-matrix:
 Charge = -1 Multiplicity = 2

 SCF Done:  E(UB3LYP) =  -1157.97561800     A.U. after   13 cycles
 SCF Done:  E(UB3LYP) =  -1157.97566279     A.U. after    8 cycles
 SCF Done:  E(UB3LYP) =  -1157.97567373     A.U. after    8 cycles
 Optimization completed.
    -- Stationary point found.
 Normal termination of Gaussian 09 at Mon Mar  5 11:50:34 2012.

 ----------------------------------------------------------
 #N Geom=AllCheck Guess=TCheck SCRF=Check B3LYP/GTBas3 Freq
 ----------------------------------------------------------

 -------
 No Z-matrix found on checkpoint file.
 Cartesian coordinates read from the checkpoint file:
 S9L-ne-d-01.chk
 Charge = -1 Multiplicity = 2

 SCF Done:  E(UB3LYP) =  -1157.97567373     A.U. after    1 cycles

  Exact polarizability:  82.479   0.000 140.541   0.000   0.000 215.169
 Approx polarizability: 159.470   0.000 357.656   0.000   0.000 542.712

                     1                      2                      3
                    B3U                    B2U                    B3G
 Frequencies --   145.8261               232.7018               329.3963
 Red. masses --    27.9769                27.9769                27.9769
 Frc consts  --     0.3505                 0.8926                 1.7885
 IR Inten    --     2.6008                 1.1758                 0.0000

                     4                      5                      6
                    AG                     B1U                    AG
 Frequencies --   360.7151               453.5281               473.9631
 Red. masses --    27.9769                27.9769                27.9769
 Frc consts  --     2.1448                 3.3905                 3.7029
 IR Inten    --     0.0000                 0.4884                 0.0000

 - Thermochemistry -
 -------------------
 Temperature   298.150 Kelvin.  Pressure   1.00000 Atm.
 Atom     1 has atomic number 14 and mass  27.97693

 Molecular mass:   111.90771 amu.
 Principal axes and moments of inertia in atomic units:
                           1         2         3
     Eigenvalues --   278.81341 804.305101083.11851
           X            0.00000   0.00000   1.00000
           Y            0.00000   1.00000   0.00000
           Z            1.00000   0.00000   0.00000
 This molecule is an asymmetric top.
 Rotational symmetry number  4.
 Rotational temperatures (Kelvin)      0.31065     0.10769     0.07997
 Rotational constants (GHZ):           6.47294     2.24385     1.66625
 Zero-point vibrational energy      11939.5 (Joules/Mol)
                                    2.85361 (Kcal/Mol)
 Warning -- explicit consideration of   6 degrees of freedom as
           vibrations may cause significant error
 Vibrational temperatures:    209.81   334.81   473.93   518.99   652.52
          (Kelvin)            681.93

 Zero-point correction=                           0.004548 (Hartree/Particle)
 Thermal correction to Energy=                    0.009781
 Thermal correction to Enthalpy=                  0.010725
 Thermal correction to Gibbs Free Energy=        -0.024502
 Sum of electronic and zero-point Energies=          -1157.971126
 Sum of electronic and thermal Energies=             -1157.965893
 Sum of electronic and thermal Enthalpies=           -1157.964948
 Sum of electronic and thermal Free Energies=        -1158.000175

                     E (Thermal)             CV                S
                      KCal/Mol        Cal/Mol-Kelvin    Cal/Mol-Kelvin
 Total                    6.138             15.491             74.141
 Electronic               0.000              0.000              1.377
 Translational            0.889              2.981             40.053
 Rotational               0.889              2.981             24.233
 Vibrational              4.360              9.529              8.478
 Vibration     1          0.617              1.907              2.726
 Vibration     2          0.653              1.791              1.858
 Vibration     3          0.712              1.617              1.263
 Vibration     4          0.735              1.553              1.119
 Vibration     5          0.812              1.353              0.785
 Vibration     6          0.831              1.308              0.727

 Optimization completed.
    -- Stationary point found.
 Normal termination of Gaussian 09 at Mon Mar  5 11:51:09 2012.

 -----------------------------------------------------------------
 #N Geom=AllCheck Guess=TCheck SCRF=Check CCSD(T,E4T,FrzG4)/GTBas1
 -----------------------------------------------------------------

 -------
 No Z-matrix found on checkpoint file.
 Cartesian coordinates read from the checkpoint file:
 S9L-ne-d-01.chk
 Charge = -1 Multiplicity = 2

 SCF Done:  E(UHF) =  -1155.60913590     A.U. after   14 cycles
 E2 =    -0.3375347638D+00 EUMP2 =    -0.11559466706649D+04
 CCSD(T)= -0.11560007017D+04
 Normal termination of Gaussian 09 at Mon Mar  5 11:51:28 2012.

 ---------------------------------------------------------
 #N Geom=AllCheck Guess=TCheck SCRF=Check MP4=FrzG4/GTBas2
 ---------------------------------------------------------

 -------
 No Z-matrix found on checkpoint file.
 Cartesian coordinates read from the checkpoint file:
 S9L-ne-d-01.chk
 Charge = -1 Multiplicity = 2

 SCF Done:  E(UHF) =  -1155.61407173     A.U. after   13 cycles
 E2 =    -0.3435738965D+00 EUMP2 =    -0.11559576456226D+04
 Normal termination of Gaussian 09 at Mon Mar  5 11:51:39 2012.

 ---------------------------------------------------------
 #N Geom=AllCheck Guess=TCheck SCRF=Check MP4=FrzG4/GTBas3
 ---------------------------------------------------------

 -------
 No Z-matrix found on checkpoint file.
 Cartesian coordinates read from the checkpoint file:
 S9L-ne-d-01.chk
 Charge = -1 Multiplicity = 2

 SCF Done:  E(UHF) =  -1155.63062549     A.U. after   13 cycles
 E2 =    -0.4271953139D+00 EUMP2 =    -0.11560578208006D+04
 Normal termination of Gaussian 09 at Mon Mar  5 11:52:13 2012.

 -----------------------------------------------------------
 #N Geom=AllCheck Guess=TCheck SCRF=Check MP2=Full/GTLargeXP
 -----------------------------------------------------------

 -------
 No Z-matrix found on checkpoint file.
 Cartesian coordinates read from the checkpoint file:
 S9L-ne-d-01.chk
 Charge = -1 Multiplicity = 2

 SCF Done:  E(UHF) =  -1155.71070983     A.U. after   13 cycles
 E2 =    -0.1613112433D+01 EUMP2 =    -0.11573238222671D+04
 Normal termination of Gaussian 09 at Mon Mar  5 11:55:14 2012.
 SCF Done:  E(UHF) =  -1155.73376713     A.U. after   10 cycles
 Normal termination of Gaussian 09 at Mon Mar  5 11:56:15 2012.

                         Standard orientation:
 ---------------------------------------------------------------------
 Center     Atomic      Atomic             Coordinates (Angstroms)
 Number     Number       Type             X           Y           Z
 ---------------------------------------------------------------------
      1         14           0        0.000000    1.181253    0.000000
      2         14           0        0.000000    0.000000    2.006303
      3         14           0        0.000000   -1.181253    0.000000
      4         14           0        0.000000    0.000000   -2.006303
 ---------------------------------------------------------------------

 SCF Done:  E(UHF) =  -1155.73706661     A.U. after   10 cycles

 The electronic state is 2-B2G.
 Alpha  occ. eigenvalues --  -68.61546 -68.61546 -68.61471 -68.61471  -5.96286
 Alpha  occ. eigenvalues --   -5.96270  -5.96040  -5.96038  -4.06822  -4.06822
 Alpha  occ. eigenvalues --   -4.06649  -4.06583  -4.06522  -4.06512  -4.06466
 Alpha  occ. eigenvalues --   -4.06459  -4.06184  -4.06181  -4.06116  -4.06112
 Alpha  occ. eigenvalues --   -0.62886  -0.47993  -0.35900  -0.27382  -0.18332
 Alpha  occ. eigenvalues --   -0.15266  -0.13944  -0.13544  -0.09391
 Alpha virt. eigenvalues --    0.11873   0.11986   0.12356   0.13821   0.14214
 Alpha virt. eigenvalues --    0.14470   0.14548   0.15345   0.15387   0.16391
 Alpha virt. eigenvalues --    0.16707   0.18300   0.18437   0.18879   0.20131

  Beta  occ. eigenvalues --  -68.61666 -68.61666 -68.61141 -68.61141  -5.96431
  Beta  occ. eigenvalues --   -5.96414  -5.95660  -5.95659  -4.06880  -4.06874
  Beta  occ. eigenvalues --   -4.06748  -4.06682  -4.06657  -4.06649  -4.05964
  Beta  occ. eigenvalues --   -4.05963  -4.05943  -4.05940  -4.05269  -4.05269
  Beta  occ. eigenvalues --   -0.62206  -0.43438  -0.36552  -0.24951  -0.14483
  Beta  occ. eigenvalues --   -0.14479  -0.14422  -0.12928
  Beta virt. eigenvalues --    0.11877   0.12019   0.12377   0.13811   0.14180
  Beta virt. eigenvalues --    0.14248   0.14288   0.14557   0.15483   0.16708
  Beta virt. eigenvalues --    0.16739   0.18308   0.18604   0.18969   0.18992

 Mulliken atomic charges:
              1
     1  Si  -0.164284
     2  Si  -0.335716
     3  Si  -0.164284
     4  Si  -0.335716
 Sum of Mulliken atomic charges =  -1.00000

 Dipole moment (field-independent basis, Debye):
    X=              0.0000    Y=              0.0000    Z=              0.0000  Tot=              0.0000
 Quadrupole moment (field-independent basis, Debye-Ang):
   XX=            -62.3955   YY=            -67.4245   ZZ=            -85.5137
   XY=              0.0000   XZ=              0.0000   YZ=              0.0000

 Normal termination of Gaussian 09 at Mon Mar  5 12:03:06 2012.
