 Gaussian 09, Revision A.02,
 Gaussian 09:  AM64L-G09RevA.02 11-Jun-2009

 -----------------------
 # G4 scfcyc=500 scf=xqc
 -----------------------

 ------
 si12-n
 ------
 Symbolic Z-matrix:
 Charge =  0 Multiplicity = 1

 SCF Done:  E(RB3LYP) =  -3473.91492233     A.U. after   17 cycles
 SCF Done:  E(RB3LYP) =  -3473.91512574     A.U. after   11 cycles
 SCF Done:  E(RB3LYP) =  -3473.91532577     A.U. after   14 cycles
 SCF Done:  E(RB3LYP) =  -3473.91545707     A.U. after   14 cycles
 SCF Done:  E(RB3LYP) =  -3473.91563942     A.U. after   15 cycles
 SCF Done:  E(RB3LYP) =  -3473.91570798     A.U. after   15 cycles
 SCF Done:  E(RB3LYP) =  -3473.91580156     A.U. after   14 cycles
 SCF Done:  E(RB3LYP) =  -3473.91599534     A.U. after   15 cycles
 SCF Done:  E(RB3LYP) =  -3473.91609405     A.U. after   13 cycles
 SCF Done:  E(RB3LYP) =  -3473.91598781     A.U. after   17 cycles
 SCF Done:  E(RB3LYP) =  -3473.91614810     A.U. after   14 cycles
 SCF Done:  E(RB3LYP) =  -3473.91615447     A.U. after   12 cycles
 SCF Done:  E(RB3LYP) =  -3473.91618358     A.U. after   14 cycles
 Optimization completed.
    -- Stationary point found.
 Normal termination of Gaussian 09 at Sat Dec 17 06:07:31 2011.

 ----------------------------------------------------------
 #N Geom=AllCheck Guess=TCheck SCRF=Check B3LYP/GTBas3 Freq
 ----------------------------------------------------------

 si12-n
 ------
 Redundant internal coordinates taken from checkpoint file:
 S9L-ne-d-01.chk
 Charge =  0 Multiplicity = 1

 SCF Done:  E(RB3LYP) =  -3473.91618358     A.U. after    1 cycles

  Exact polarizability: 302.149   0.088 302.528   0.000   0.000 473.440
 Approx polarizability:1054.362   1.1611079.967   0.000   0.0001529.890

                     1                      2                      3
                    A'                     A'                     A'
 Frequencies --    50.7599               122.1428               135.6896
 Red. masses --    27.9769                27.9769                27.9769
 Frc consts  --     0.0425                 0.2459                 0.3035
 IR Inten    --     0.1826                 0.0102                 0.2556

                     4                      5                      6
                    A"                     A"                     A"
 Frequencies --   148.3242               159.2351               167.0065
 Red. masses --    27.9769                27.9769                27.9769
 Frc consts  --     0.3626                 0.4180                 0.4597
 IR Inten    --     0.4094                 0.0922                 0.0004

                     7                      8                      9
                    A'                     A"                     A'
 Frequencies --   170.0788               186.7836               202.6866
 Red. masses --    27.9769                27.9769                27.9769
 Frc consts  --     0.4768                 0.5751                 0.6772
 IR Inten    --     0.0062                 0.0001                 1.0282

                    10                     11                     12
                    A'                     A'                     A"
 Frequencies --   209.1323               233.4957               234.9204
 Red. masses --    27.9769                27.9769                27.9769
 Frc consts  --     0.7209                 0.8987                 0.9097
 IR Inten    --     0.0406                 0.7082                 0.4593

                    13                     14                     15
                    A'                     A"                     A"
 Frequencies --   255.0315               258.8687               262.8105
 Red. masses --    27.9769                27.9769                27.9769
 Frc consts  --     1.0721                 1.1046                 1.1385
 IR Inten    --     0.3197                 0.0000                 1.0470

                    16                     17                     18
                    A'                     A'                     A'
 Frequencies --   266.5749               271.6883               295.2417
 Red. masses --    27.9769                27.9769                27.9769
 Frc consts  --     1.1714                 1.2167                 1.4368
 IR Inten    --     0.5641                 0.5591                 0.3817

                    19                     20                     21
                    A"                     A'                     A"
 Frequencies --   297.1691               309.9506               326.0504
 Red. masses --    27.9769                27.9769                27.9769
 Frc consts  --     1.4557                 1.5836                 1.7523
 IR Inten    --     0.0004                 0.0218                 1.6751

                    22                     23                     24
                    A'                     A"                     A"
 Frequencies --   326.1641               338.9797               339.4546
 Red. masses --    27.9769                27.9769                27.9769
 Frc consts  --     1.7536                 1.8941                 1.8994
 IR Inten    --     0.1113                 0.0000                 4.9827

                    25                     26                     27
                    A'                     A'                     A'
 Frequencies --   342.2550               379.2078               381.0216
 Red. masses --    27.9769                27.9769                27.9769
 Frc consts  --     1.9309                 2.3703                 2.3930
 IR Inten    --     0.9421                 1.0792                 0.8563

                    28                     29                     30
                    A"                     A"                     A'
 Frequencies --   428.6620               524.3837               530.3247
 Red. masses --    27.9769                27.9769                27.9769
 Frc consts  --     3.0289                 4.5326                 4.6359
 IR Inten    --     4.0586                 6.5110                 5.5181

 - Thermochemistry -
 -------------------
 Temperature   298.150 Kelvin.  Pressure   1.00000 Atm.
 Atom     1 has atomic number 14 and mass  27.97693

 Molecular mass:   335.72314 amu.
 Principal axes and moments of inertia in atomic units:
                           1         2         3
     Eigenvalues --  3195.342046215.576226297.99118
           X            0.00000   1.00000   0.00000
           Y            0.00000   0.00000   1.00000
           Z            1.00000   0.00000   0.00000
 This molecule is an asymmetric top.
 Rotational symmetry number  1.
 Warning -- assumption of classical behavior for rotation
           may cause significant error
 Rotational temperatures (Kelvin)      0.02711     0.01393     0.01375
 Rotational constants (GHZ):           0.56480     0.29036     0.28656
 Zero-point vibrational energy      48772.3 (Joules/Mol)
                                   11.65686 (Kcal/Mol)
 Warning -- explicit consideration of  30 degrees of freedom as
           vibrations may cause significant error
 Vibrational temperatures:     73.03   175.74   195.23   213.41   229.10
          (Kelvin)            240.28   244.71   268.74   291.62   300.89
                              335.95   338.00   366.93   372.45   378.13
                              383.54   390.90   424.79   427.56   445.95
                              469.11   469.28   487.72   488.40   492.43
                              545.59   548.20   616.75   754.47   763.02

 Zero-point correction=                           0.018576 (Hartree/Particle)
 Thermal correction to Energy=                    0.035648
 Thermal correction to Enthalpy=                  0.036593
 Thermal correction to Gibbs Free Energy=        -0.025306
 Sum of electronic and zero-point Energies=          -3473.897607
 Sum of electronic and thermal Energies=             -3473.880535
 Sum of electronic and thermal Enthalpies=           -3473.879591
 Sum of electronic and thermal Free Energies=        -3473.941489

                     E (Thermal)             CV                S
                      KCal/Mol        Cal/Mol-Kelvin    Cal/Mol-Kelvin
 Total                   22.370             57.007            130.275
 Electronic               0.000              0.000              0.000
 Translational            0.889              2.981             43.328
 Rotational               0.889              2.981             33.192
 Vibrational             20.592             51.046             53.755
 Vibration     1          0.595              1.977              4.788
 Vibration     2          0.610              1.931              3.066
 Vibration     3          0.614              1.918              2.864
 Vibration     4          0.618              1.904              2.694
 Vibration     5          0.621              1.892              2.559
 Vibration     6          0.624              1.883              2.469
 Vibration     7          0.625              1.879              2.435
 Vibration     8          0.632              1.858              2.260
 Vibration     9          0.639              1.836              2.109
 Vibration    10          0.642              1.827              2.051
 Vibration    11          0.654              1.790              1.852
 Vibration    12          0.655              1.787              1.841
 Vibration    13          0.665              1.754              1.696
 Vibration    14          0.668              1.748              1.669
 Vibration    15          0.670              1.741              1.643
 Vibration    16          0.672              1.734              1.618
 Vibration    17          0.675              1.725              1.585
 Vibration    18          0.689              1.683              1.444
 Vibration    19          0.691              1.679              1.433
 Vibration    20          0.699              1.655              1.363
 Vibration    21          0.710              1.623              1.280
 Vibration    22          0.710              1.623              1.279
 Vibration    23          0.719              1.598              1.217
 Vibration    24          0.719              1.597              1.215
 Vibration    25          0.721              1.591              1.202
 Vibration    26          0.749              1.514              1.042
 Vibration    27          0.751              1.511              1.035
 Vibration    28          0.790              1.408              0.863
 Vibration    29          0.879              1.196              0.600
 Vibration    30          0.885              1.183              0.586

 Normal termination of Gaussian 09 at Sat Dec 17 06:20:42 2011.

 -----------------------------------------------------------------
 #N Geom=AllCheck Guess=TCheck SCRF=Check CCSD(T,E4T,FrzG4)/GTBas1
 -----------------------------------------------------------------

 si12-n
 ------
 Redundant internal coordinates taken from checkpoint file:
 S9L-ne-d-01.chk
 Charge =  0 Multiplicity = 1

 SCF Done:  E(RHF) =  -3466.75690789     A.U. after   16 cycles
 E2 =    -0.1216213587D+01 EUMP2 =    -0.34679731214814D+04
 CCSD(T)= -0.34680400074D+04
 Normal termination of Gaussian 09 at Sat Dec 17 06:47:32 2011.

 ---------------------------------------------------------
 #N Geom=AllCheck Guess=TCheck SCRF=Check MP4=FrzG4/GTBas2
 ---------------------------------------------------------

 si12-n
 ------
 Redundant internal coordinates taken from checkpoint file:
 S9L-ne-d-01.chk
 Charge =  0 Multiplicity = 1

 SCF Done:  E(RHF) =  -3466.76652241     A.U. after   17 cycles
 E2 =    -0.1231456742D+01 EUMP2 =    -0.34679979791483D+04
 Normal termination of Gaussian 09 at Sat Dec 17 07:05:55 2011.

 ---------------------------------------------------------
 #N Geom=AllCheck Guess=TCheck SCRF=Check MP4=FrzG4/GTBas3
 ---------------------------------------------------------

 si12-n
 ------
 Redundant internal coordinates taken from checkpoint file:
 S9L-ne-d-01.chk
 Charge =  0 Multiplicity = 1

 SCF Done:  E(RHF) =  -3466.84786572     A.U. after   16 cycles
 E2 =    -0.1517620121D+01 EUMP2 =    -0.34683654858364D+04
 Normal termination of Gaussian 09 at Sat Dec 17 08:40:36 2011.

 -----------------------------------------------------------
 #N Geom=AllCheck Guess=TCheck SCRF=Check MP2=Full/GTLargeXP
 -----------------------------------------------------------

 si12-n
 ------
 Redundant internal coordinates taken from checkpoint file:
 S9L-ne-d-01.chk
 Charge =  0 Multiplicity = 1

 SCF Done:  E(RHF) =  -3467.07887386     A.U. after   15 cycles
 E2 =    -0.5081854843D+01 EUMP2 =    -0.34721607287073D+04
 Normal termination of Gaussian 09 at Sat Dec 17 11:07:02 2011.
 SCF Done:  E(RHF) =  -3467.14274398     A.U. after   12 cycles
 Normal termination of Gaussian 09 at Sat Dec 17 11:41:15 2011.

                         Standard orientation:
 ---------------------------------------------------------------------
 Center     Atomic      Atomic             Coordinates (Angstroms)
 Number     Number       Type             X           Y           Z
 ---------------------------------------------------------------------
      1         14           0       -0.196822    0.005940    3.687541
      2         14           0       -0.978032    1.472954    1.824172
      3         14           0        1.012344   -0.019524    1.746130
      4         14           0       -1.035998   -1.433043    1.828283
      5         14           0        0.653645   -1.901250    0.000000
      6         14           0        0.733938    1.874453    0.000000
      7         14           0       -1.585947    0.026806    0.000000
      8         14           0       -0.978032    1.472954   -1.824172
      9         14           0        1.012344   -0.019524   -1.746130
     10         14           0       -1.035998   -1.433043   -1.828283
     11         14           0       -0.196822    0.005940   -3.687541
     12         14           0        2.595379   -0.052662    0.000000
 ---------------------------------------------------------------------

 SCF Done:  E(RHF) =  -3467.15496698     A.U. after   11 cycles

 The electronic state is 1-A'.
 Alpha  occ. eigenvalues --  -68.83290 -68.81541 -68.81541 -68.81034 -68.81030
 Alpha  occ. eigenvalues --  -68.80632 -68.80449 -68.80449 -68.80422 -68.80422
 Alpha  occ. eigenvalues --  -68.79857 -68.79857  -6.17749  -6.16264  -6.16264
 Alpha  occ. eigenvalues --   -6.15420  -6.15416  -6.15132  -6.15011  -6.15011
 Alpha  occ. eigenvalues --   -6.14983  -6.14983  -6.14293  -6.14293  -4.28184
 Alpha  occ. eigenvalues --   -4.28080  -4.28018  -4.26732  -4.26732  -4.26711
 Alpha  occ. eigenvalues --   -4.26711  -4.26613  -4.26612  -4.25663  -4.25658
 Alpha  occ. eigenvalues --   -4.25621  -4.25615  -4.25612  -4.25608  -4.25310
 Alpha  occ. eigenvalues --   -4.25287  -4.25284  -4.25271  -4.25271  -4.25242
 Alpha  occ. eigenvalues --   -4.25242  -4.25222  -4.25221  -4.25193  -4.25193
 Alpha  occ. eigenvalues --   -4.25172  -4.25171  -4.25144  -4.25143  -4.24436
 Alpha  occ. eigenvalues --   -4.24436  -4.24413  -4.24413  -4.24404  -4.24404
 Alpha  occ. eigenvalues --   -0.90828  -0.83018  -0.75971  -0.73405  -0.70031
 Alpha  occ. eigenvalues --   -0.61079  -0.59084  -0.57361  -0.55843  -0.52878
 Alpha  occ. eigenvalues --   -0.48441  -0.41511  -0.40290  -0.38550  -0.37960
 Alpha  occ. eigenvalues --   -0.35333  -0.35180  -0.32224  -0.30201  -0.30063
 Alpha  occ. eigenvalues --   -0.29174  -0.29163  -0.28799  -0.28750
 Alpha virt. eigenvalues --   -0.01220  -0.00489   0.00599   0.00887   0.01501
 Alpha virt. eigenvalues --    0.02684   0.02695   0.02787   0.03064   0.03344
 Alpha virt. eigenvalues --    0.03473   0.03691   0.03969   0.04208   0.04891

 Mulliken atomic charges:
              1
     1  Si  -0.054396
     2  Si  -0.061167
     3  Si   0.260403
     4  Si  -0.061992
     5  Si  -0.101425
     6  Si  -0.101539
     7  Si   0.228658
     8  Si  -0.061167
     9  Si   0.260403
    10  Si  -0.061992
    11  Si  -0.054396
    12  Si  -0.191391
 Sum of Mulliken atomic charges =   0.00000

 Dipole moment (field-independent basis, Debye):
    X=             -0.4928    Y=              0.0012    Z=              0.0000  Tot=              0.4928
 Quadrupole moment (field-independent basis, Debye-Ang):
   XX=           -159.4851   YY=           -163.6774   ZZ=           -167.1546
   XY=             -0.0231   XZ=              0.0000   YZ=              0.0000

 Normal termination of Gaussian 09 at Sat Dec 17 15:04:17 2011.
