 Gaussian 09, Revision A.02,
 Gaussian 09:  AM64L-G09RevA.02 11-Jun-2009

 -----------------------
 # G4 scfcyc=500 scf=xqc
 -----------------------

 -------------
 Si-ne-singlet
 -------------
 Symbolic Z-matrix:
 Charge =  0 Multiplicity = 3

 SCF Done:  E(UB3LYP) =  -289.371989202     A.U. after   10 cycles
 Optimization completed.
    -- Stationary point found.
 Normal termination of Gaussian 09 at Tue Oct 25 14:16:39 2011.

 ----------------------------------------------------------
 #N Geom=AllCheck Guess=TCheck SCRF=Check B3LYP/GTBas3 Freq
 ----------------------------------------------------------

 -------------
 No Z-matrix found on checkpoint file.
 Cartesian coordinates read from the checkpoint file:
 S7B-ne-d-04.chk
 Charge =  0 Multiplicity = 3

 SCF Done:  E(UB3LYP) =  -289.371989202     A.U. after    1 cycles

  Exact polarizability:  25.113   0.000  25.113   0.000   0.000  21.594
 Approx polarizability:  30.906   0.000  30.906   0.000   0.000  35.914

 - Thermochemistry -
 -------------------
 Temperature   298.150 Kelvin.  Pressure   1.00000 Atm.
 Atom     1 has atomic number 14 and mass  27.97693
 Molecular mass:    27.97693 amu.
 Zero-point vibrational energy          0.0 (Joules/Mol)
                                    0.00000 (Kcal/Mol)
 Vibrational temperatures:
          (Kelvin)

 Zero-point correction=                           0.000000 (Hartree/Particle)
 Thermal correction to Energy=                    0.001416
 Thermal correction to Enthalpy=                  0.002360
 Thermal correction to Gibbs Free Energy=        -0.015744
 Sum of electronic and zero-point Energies=           -289.371989
 Sum of electronic and thermal Energies=              -289.370573
 Sum of electronic and thermal Enthalpies=            -289.369629
 Sum of electronic and thermal Free Energies=         -289.387733

                     E (Thermal)             CV                S
                      KCal/Mol        Cal/Mol-Kelvin    Cal/Mol-Kelvin
 Total                    0.889              2.981             38.104
 Electronic               0.000              0.000              2.183
 Translational            0.889              2.981             35.921
 Rotational               0.000              0.000              0.000
 Vibrational              0.000              0.000              0.000

 Optimization completed.
    -- Stationary point found.
 Normal termination of Gaussian 09 at Tue Oct 25 14:16:49 2011.

 -----------------------------------------------------------------
 #N Geom=AllCheck Guess=TCheck SCRF=Check CCSD(T,E4T,FrzG4)/GTBas1
 -----------------------------------------------------------------

 -------------
 No Z-matrix found on checkpoint file.
 Cartesian coordinates read from the checkpoint file:
 S7B-ne-d-04.chk
 Charge =  0 Multiplicity = 3

 SCF Done:  E(UHF) =  -288.831785686     A.U. after    9 cycles
 E2 =    -0.4024446795D-01 EUMP2 =    -0.28887203015410D+03
 CCSD(T)= -0.28888914565D+03
 14\MP4SDQ=-288.887198\CCSD=-288.8883192\CCSD(T)=-288.8891457\S2=2.0059
 Normal termination of Gaussian 09 at Tue Oct 25 14:16:52 2011.

 ---------------------------------------------------------
 #N Geom=AllCheck Guess=TCheck SCRF=Check MP4=FrzG4/GTBas2
 ---------------------------------------------------------

 -------------
 No Z-matrix found on checkpoint file.
 Cartesian coordinates read from the checkpoint file:
 S7B-ne-d-04.chk
 Charge =  0 Multiplicity = 3

 SCF Done:  E(UHF) =  -288.832195310     A.U. after    9 cycles
 E2 =    -0.4066338462D-01 EUMP2 =    -0.28887285869498D+03
 Normal termination of Gaussian 09 at Tue Oct 25 14:16:54 2011.

 ---------------------------------------------------------
 #N Geom=AllCheck Guess=TCheck SCRF=Check MP4=FrzG4/GTBas3
 ---------------------------------------------------------

 -------------
 No Z-matrix found on checkpoint file.
 Cartesian coordinates read from the checkpoint file:
 S7B-ne-d-04.chk
 Charge =  0 Multiplicity = 3

 SCF Done:  E(UHF) =  -288.833233982     A.U. after    8 cycles
 E2 =    -0.5327942005D-01 EUMP2 =    -0.28888651340242D+03
 Normal termination of Gaussian 09 at Tue Oct 25 14:16:57 2011.

 -----------------------------------------------------------
 #N Geom=AllCheck Guess=TCheck SCRF=Check MP2=Full/GTLargeXP
 -----------------------------------------------------------

 -------------
 No Z-matrix found on checkpoint file.
 Cartesian coordinates read from the checkpoint file:
 S7B-ne-d-04.chk
 Charge =  0 Multiplicity = 3

 SCF Done:  E(UHF) =  -288.852156251     A.U. after    9 cycles
 E2 =    -0.3468023055D+00 EUMP2 =    -0.28919895855668D+03
 Normal termination of Gaussian 09 at Tue Oct 25 14:17:03 2011.
 SCF Done:  E(UHF) =  -288.858427077     A.U. after    8 cycles
 Normal termination of Gaussian 09 at Tue Oct 25 14:17:08 2011.

                         Standard orientation:
 ---------------------------------------------------------------------
 Center     Atomic      Atomic             Coordinates (Angstroms)
 Number     Number       Type             X           Y           Z
 ---------------------------------------------------------------------
      1         14           0        0.000000    0.000000    0.000000
 ---------------------------------------------------------------------

 SCF Done:  E(UHF) =  -288.858814027     A.U. after    8 cycles

 Unable to determine electronic state:  an orbital has unidentified symmetry.
 Alpha  occ. eigenvalues --  -68.81632  -6.16060  -4.26893  -4.26893  -4.25810
 Alpha  occ. eigenvalues --   -0.61985  -0.30139  -0.30139
 Alpha virt. eigenvalues --   -0.01013   0.04709   0.05083   0.05083   0.05850
 Alpha virt. eigenvalues --    0.24798   0.24798   0.25763   0.25763   0.26505
 Alpha virt. eigenvalues --    0.27313   0.27374   0.27374   0.28110   0.59443

  Beta  occ. eigenvalues --  -68.80600  -6.14973  -4.25309  -4.23984  -4.23984
  Beta  occ. eigenvalues --   -0.46275
  Beta virt. eigenvalues --    0.00518   0.03076   0.03076   0.05350   0.06337
  Beta virt. eigenvalues --    0.08656   0.08656   0.27206   0.29199   0.29898
  Beta virt. eigenvalues --    0.29898   0.31364   0.31773   0.31773   0.34275

 Mulliken atomic charges:
              1
     1  Si   0.000000
 Sum of Mulliken atomic charges =   0.00000

 Dipole moment (field-independent basis, Debye):
    X=              0.0000    Y=              0.0000    Z=              0.0000  Tot=              0.0000
 Quadrupole moment (field-independent basis, Debye-Ang):
   XX=            -16.0332   YY=            -16.0332   ZZ=            -11.1645
   XY=              0.0000   XZ=              0.0000   YZ=              0.0000

 Normal termination of Gaussian 09 at Tue Oct 25 14:17:25 2011.
