 Gaussian 09, Revision A.02,
 Gaussian 09:  AM64L-G09RevA.02 11-Jun-2009

 -----------------------
 # G4 scfcyc=500 scf=xqc
 -----------------------

 --------
 si13-c-d
 --------
 Symbolic Z-matrix:
 Charge =  1 Multiplicity = 2

 SCF Done:  E(UB3LYP) =  -3763.14204268     A.U. after   21 cycles
 SCF Done:  E(UB3LYP) =  -3763.15490371     A.U. after   18 cycles
 SCF Done:  E(UB3LYP) =  -3763.16532556     A.U. after   18 cycles
 SCF Done:  E(UB3LYP) =  -3763.16647455     A.U. after   15 cycles
 SCF Done:  E(UB3LYP) =  -3763.16747610     A.U. after   16 cycles
 SCF Done:  E(UB3LYP) =  -3763.16757841     A.U. after   12 cycles
 SCF Done:  E(UB3LYP) =  -3763.16763515     A.U. after   13 cycles
 SCF Done:  E(UB3LYP) =  -3763.16765070     A.U. after   12 cycles
 SCF Done:  E(UB3LYP) =  -3763.16765342     A.U. after   11 cycles
 Optimization completed.
    -- Stationary point found.
 Normal termination of Gaussian 09 at Sun Jan  8 15:37:30 2012.

 ----------------------------------------------------------
 #N Geom=AllCheck Guess=TCheck SCRF=Check B3LYP/GTBas3 Freq
 ----------------------------------------------------------

 si13-c-d
 --------
 Redundant internal coordinates taken from checkpoint file:
 S9L-ne-d-01.chk
 Charge =  1 Multiplicity = 2

 SCF Done:  E(UB3LYP) =  -3763.16765342     A.U. after    1 cycles

  Exact polarizability: 385.125   0.000 423.744   0.000   0.000 296.259
 Approx polarizability:1391.942   0.0001490.111   0.000   0.0001067.958

                     1                      2                      3
                    A1                     B1                     A2
 Frequencies --   109.7516               118.9439               149.0947
 Red. masses --    27.9769                27.9769                27.9769
 Frc consts  --     0.1986                 0.2332                 0.3664
 IR Inten    --     0.0872                 0.0000                 0.0000

                     4                      5                      6
                    B2                     A2                     B1
 Frequencies --   161.6453               166.5392               168.7681
 Red. masses --    27.9769                27.9769                27.9769
 Frc consts  --     0.4307                 0.4572                 0.4695
 IR Inten    --     0.1267                 0.0000                 0.0671

                     7                      8                      9
                    A2                     B2                     A1
 Frequencies --   177.9726               184.4352               184.8128
 Red. masses --    27.9769                27.9769                27.9769
 Frc consts  --     0.5221                 0.5607                 0.5630
 IR Inten    --     0.0000                 0.0217                 0.0620

                    10                     11                     12
                    A1                     A1                     B2
 Frequencies --   188.1862               206.4734               208.9386
 Red. masses --    27.9769                27.9769                27.9769
 Frc consts  --     0.5837                 0.7027                 0.7196
 IR Inten    --     0.3513                 0.0481                 0.5339

                    13                     14                     15
                    B1                     B1                     B2
 Frequencies --   212.9372               224.1066               229.4998
 Red. masses --    27.9769                27.9769                27.9769
 Frc consts  --     0.7474                 0.8279                 0.8682
 IR Inten    --     1.2915                 0.7587                 1.3798

                    16                     17                     18
                    A1                     A2                     B1
 Frequencies --   231.5239               250.1824               253.3173
 Red. masses --    27.9769                27.9769                27.9769
 Frc consts  --     0.8836                 1.0317                 1.0577
 IR Inten    --     0.7187                 0.0000                 0.0236

                    19                     20                     21
                    A1                     B2                     B2
 Frequencies --   276.2416               290.0982               301.7446
 Red. masses --    27.9769                27.9769                27.9769
 Frc consts  --     1.2578                 1.3872                 1.5008
 IR Inten    --     0.0655                 3.4968                 0.7041

                    22                     23                     24
                    B1                     A1                     A2
 Frequencies --   312.2005               316.1123               382.8453
 Red. masses --    27.9769                27.9769                27.9769
 Frc consts  --     1.6066                 1.6471                 2.4160
 IR Inten    --     0.4278                 1.2380                 0.0000

                    25                     26                     27
                    A1                     A1                     A2
 Frequencies --   384.9959               389.0426               391.7915
 Red. masses --    27.9769                27.9769                27.9769
 Frc consts  --     2.4432                 2.4949                 2.5302
 IR Inten    --     5.2589                 0.4496                 0.0000

                    28                     29                     30
                    B1                     B2                     B2
 Frequencies --   401.1637               403.6044               447.3104
 Red. masses --    27.9769                27.9769                27.9769
 Frc consts  --     2.6527                 2.6851                 3.2981
 IR Inten    --     4.8660                 0.6672                 3.1126

                    31                     32                     33
                    A1                     B1                     A1
 Frequencies --   448.6044               454.6579               480.5949
 Red. masses --    27.9769                27.9769                27.9769
 Frc consts  --     3.3172                 3.4074                 3.8072
 IR Inten    --     0.1571                 3.5693                 9.8595

 - Thermochemistry -
 -------------------
 Temperature   298.150 Kelvin.  Pressure   1.00000 Atm.
 Atom     1 has atomic number 14 and mass  27.97693

 Molecular mass:   363.70007 amu.
 Principal axes and moments of inertia in atomic units:
                           1         2         3
     Eigenvalues --  4926.170125502.639056947.57834
           X            0.00000   1.00000   0.00000
           Y            1.00000   0.00000   0.00000
           Z            0.00000   0.00000   1.00000
 This molecule is an asymmetric top.
 Rotational symmetry number  2.
 Warning -- assumption of classical behavior for rotation
           may cause significant error
 Rotational temperatures (Kelvin)      0.01758     0.01574     0.01247
 Rotational constants (GHZ):           0.36636     0.32798     0.25977
 Zero-point vibrational energy      54478.8 (Joules/Mol)
                                   13.02074 (Kcal/Mol)
 Warning -- explicit consideration of  33 degrees of freedom as
           vibrations may cause significant error
 Vibrational temperatures:    157.91   171.13   214.51   232.57   239.61
          (Kelvin)            242.82   256.06   265.36   265.90   270.76
                              297.07   300.62   306.37   322.44   330.20
                              333.11   359.96   364.47   397.45   417.39
                              434.14   449.19   454.81   550.83   553.92
                              559.74   563.70   577.18   580.70   643.58
                              645.44   654.15   691.47

 Zero-point correction=                           0.020750 (Hartree/Particle)
 Thermal correction to Energy=                    0.039036
 Thermal correction to Enthalpy=                  0.039981
 Thermal correction to Gibbs Free Energy=        -0.023817
 Sum of electronic and zero-point Energies=          -3763.146904
 Sum of electronic and thermal Energies=             -3763.128617
 Sum of electronic and thermal Enthalpies=           -3763.127673
 Sum of electronic and thermal Free Energies=        -3763.191471

                     E (Thermal)             CV                S
                      KCal/Mol        Cal/Mol-Kelvin    Cal/Mol-Kelvin
 Total                   24.496             61.901            134.274
 Electronic               0.000              0.000              1.377
 Translational            0.889              2.981             43.567
 Rotational               0.889              2.981             32.221
 Vibrational             22.718             55.939             57.109
 Vibration     1          0.606              1.941              3.273
 Vibration     2          0.609              1.934              3.117
 Vibration     3          0.618              1.904              2.684
 Vibration     4          0.622              1.889              2.530
 Vibration     5          0.624              1.884              2.474
 Vibration     6          0.625              1.881              2.449
 Vibration     7          0.628              1.869              2.350
 Vibration     8          0.631              1.861              2.283
 Vibration     9          0.631              1.861              2.279
 Vibration    10          0.633              1.856              2.246
 Vibration    11          0.641              1.831              2.075
 Vibration    12          0.642              1.827              2.053
 Vibration    13          0.644              1.821              2.018
 Vibration    14          0.649              1.804              1.926
 Vibration    15          0.652              1.796              1.883
 Vibration    16          0.653              1.793              1.867
 Vibration    17          0.663              1.762              1.729
 Vibration    18          0.664              1.757              1.707
 Vibration    19          0.678              1.717              1.557
 Vibration    20          0.686              1.692              1.473
 Vibration    21          0.694              1.670              1.407
 Vibration    22          0.701              1.650              1.351
 Vibration    23          0.703              1.643              1.330
 Vibration    24          0.752              1.507              1.028
 Vibration    25          0.754              1.502              1.019
 Vibration    26          0.757              1.494              1.004
 Vibration    27          0.759              1.488              0.993
 Vibration    28          0.767              1.468              0.958
 Vibration    29          0.769              1.462              0.949
 Vibration    30          0.806              1.367              0.804
 Vibration    31          0.808              1.364              0.800
 Vibration    32          0.813              1.351              0.782
 Vibration    33          0.837              1.293              0.708

 Normal termination of Gaussian 09 at Sun Jan  8 16:04:33 2012.

 -----------------------------------------------------------------
 #N Geom=AllCheck Guess=TCheck SCRF=Check CCSD(T,E4T,FrzG4)/GTBas1
 -----------------------------------------------------------------

 si13-c-d
 --------
 Redundant internal coordinates taken from checkpoint file:
 S9L-ne-d-01.chk
 Charge =  1 Multiplicity = 2

 SCF Done:  E(UHF) =  -3755.45549631     A.U. after   26 cycles
 E2 =    -0.1262331520D+01 EUMP2 =    -0.37567178278309D+04
 CCSD(T)= -0.37568124074D+04
 DQ=-3756.7224995\CCSD=-3756.6905792\CCSD(T)=-3756.8124074\S2=0.97041\S
 Normal termination of Gaussian 09 at Sun Jan  8 17:33:30 2012.

 ---------------------------------------------------------
 #N Geom=AllCheck Guess=TCheck SCRF=Check MP4=FrzG4/GTBas2
 ---------------------------------------------------------

 si13-c-d
 --------
 Redundant internal coordinates taken from checkpoint file:
 S9L-ne-d-01.chk
 Charge =  1 Multiplicity = 2

 SCF Done:  E(UHF) =  -3755.46931315     A.U. after   34 cycles
 E2 =    -0.1278560395D+01 EUMP2 =    -0.37567478735476D+04
 Normal termination of Gaussian 09 at Sun Jan  8 18:06:57 2012.

 ---------------------------------------------------------
 #N Geom=AllCheck Guess=TCheck SCRF=Check MP4=FrzG4/GTBas3
 ---------------------------------------------------------

 si13-c-d
 --------
 Redundant internal coordinates taken from checkpoint file:
 S9L-ne-d-01.chk
 Charge =  1 Multiplicity = 2

 SCF Done:  E(UHF) =  -3755.54655221     A.U. after   24 cycles
 E2 =    -0.1578359067D+01 EUMP2 =    -0.37571249112784D+04
 Normal termination of Gaussian 09 at Sun Jan  8 20:56:14 2012.

 -----------------------------------------------------------
 #N Geom=AllCheck Guess=TCheck SCRF=Check MP2=Full/GTLargeXP
 -----------------------------------------------------------

 si13-c-d
 --------
 Redundant internal coordinates taken from checkpoint file:
 S9L-ne-d-01.chk
 Charge =  1 Multiplicity = 2

 SCF Done:  E(UHF) =  -3755.79747896     A.U. after   26 cycles
 E2 =    -0.5433070133D+01 EUMP2 =    -0.37612305490935D+04
 Normal termination of Gaussian 09 at Mon Jan  9 01:52:17 2012.
 SCF Done:  E(UHF) =  -3755.86679566     A.U. after   23 cycles
 Normal termination of Gaussian 09 at Mon Jan  9 02:47:53 2012.

                         Standard orientation:
 ---------------------------------------------------------------------
 Center     Atomic      Atomic             Coordinates (Angstroms)
 Number     Number       Type             X           Y           Z
 ---------------------------------------------------------------------
      1         14           0        0.000000    1.721710   -1.570592
      2         14           0        0.000000    3.411820    0.123332
      3         14           0       -1.266610    1.453057    0.747205
      4         14           0       -1.644233    0.000000   -1.494851
      5         14           0       -1.266610   -1.453057    0.747205
      6         14           0        0.000000   -3.411820    0.123332
      7         14           0        1.266610   -1.453057    0.747205
      8         14           0        0.000000    0.000000    2.370238
      9         14           0        1.266610    1.453057    0.747205
     10         14           0        1.644233    0.000000   -1.494851
     11         14           0        0.000000   -1.721710   -1.570592
     12         14           0       -3.167085    0.000000    0.262582
     13         14           0        3.167085    0.000000    0.262582
 ---------------------------------------------------------------------

 SCF Done:  E(UHF) =  -3755.88029724     A.U. after   20 cycles

 The electronic state is 2-B2.
 Alpha  occ. eigenvalues --  -68.95827 -68.95827 -68.95827 -68.95827 -68.93749
 Alpha  occ. eigenvalues --  -68.93749 -68.93684 -68.93684 -68.93568 -68.93568
 Alpha  occ. eigenvalues --  -68.93100 -68.93100 -68.92533  -6.30267  -6.30265
 Alpha  occ. eigenvalues --   -6.30260  -6.30258  -6.28360  -6.28359  -6.28246
 Alpha  occ. eigenvalues --   -6.28245  -6.28105  -6.28105  -6.27490  -6.27490
 Alpha  occ. eigenvalues --   -6.27106  -4.40816  -4.40811  -4.40811  -4.40806
 Alpha  occ. eigenvalues --   -4.40636  -4.40636  -4.40620  -4.40619  -4.40538
 Alpha  occ. eigenvalues --   -4.40536  -4.40523  -4.40521  -4.38917  -4.38917
 Alpha  occ. eigenvalues --   -4.38761  -4.38757  -4.38751  -4.38751  -4.38686
 Alpha  occ. eigenvalues --   -4.38686  -4.38543  -4.38543  -4.38516  -4.38515
 Alpha  occ. eigenvalues --   -4.38283  -4.38283  -4.38249  -4.38249  -4.38221
 Alpha  occ. eigenvalues --   -4.38221  -4.38023  -4.38023  -4.37528  -4.37528
 Alpha  occ. eigenvalues --   -4.37497  -4.37497  -4.37376  -4.37271  -4.37177
 Alpha  occ. eigenvalues --   -1.03850  -0.95121  -0.93009  -0.88719  -0.84801
 Alpha  occ. eigenvalues --   -0.77194  -0.73905  -0.71866  -0.70602  -0.67615
 Alpha  occ. eigenvalues --   -0.63806  -0.62365  -0.56480  -0.53067  -0.52911
 Alpha  occ. eigenvalues --   -0.51242  -0.50377  -0.49405  -0.48732  -0.45210
 Alpha  occ. eigenvalues --   -0.44252  -0.43524  -0.43479  -0.42799  -0.41391
 Alpha  occ. eigenvalues --   -0.39647
 Alpha virt. eigenvalues --   -0.16077  -0.14644  -0.14404  -0.11236  -0.09348
 Alpha virt. eigenvalues --   -0.09205  -0.09042  -0.07940  -0.07223  -0.06729
 Alpha virt. eigenvalues --   -0.06107  -0.05085  -0.04999  -0.04863  -0.04729

  Beta  occ. eigenvalues --  -68.95778 -68.95778 -68.95778 -68.95778 -68.93886
  Beta  occ. eigenvalues --  -68.93886 -68.93654 -68.93654 -68.93350 -68.93350
  Beta  occ. eigenvalues --  -68.92969 -68.92969 -68.92493  -6.30231  -6.30229
  Beta  occ. eigenvalues --   -6.30224  -6.30222  -6.28540  -6.28540  -6.28082
  Beta  occ. eigenvalues --   -6.28082  -6.27944  -6.27944  -6.27341  -6.27341
  Beta  occ. eigenvalues --   -6.27056  -4.40690  -4.40689  -4.40680  -4.40680
  Beta  occ. eigenvalues --   -4.40550  -4.40550  -4.40525  -4.40525  -4.40372
  Beta  occ. eigenvalues --   -4.40370  -4.40364  -4.40362  -4.39154  -4.39154
  Beta  occ. eigenvalues --   -4.38870  -4.38868  -4.38845  -4.38843  -4.38380
  Beta  occ. eigenvalues --   -4.38379  -4.38340  -4.38340  -4.38234  -4.38234
  Beta  occ. eigenvalues --   -4.38217  -4.38217  -4.38174  -4.38174  -4.38121
  Beta  occ. eigenvalues --   -4.38121  -4.37612  -4.37612  -4.37560  -4.37560
  Beta  occ. eigenvalues --   -4.37286  -4.37194  -4.37139  -4.37139  -4.37094
  Beta  occ. eigenvalues --   -1.03212  -0.94261  -0.92772  -0.88135  -0.84270
  Beta  occ. eigenvalues --   -0.76166  -0.71967  -0.71349  -0.71255  -0.65511
  Beta  occ. eigenvalues --   -0.63160  -0.61154  -0.56010  -0.52032  -0.51754
  Beta  occ. eigenvalues --   -0.50371  -0.49013  -0.46743  -0.45835  -0.45797
  Beta  occ. eigenvalues --   -0.43470  -0.43133  -0.42720  -0.40998  -0.40951
  Beta virt. eigenvalues --   -0.17719  -0.16326  -0.14515  -0.13837  -0.10860
  Beta virt. eigenvalues --   -0.08894  -0.08751  -0.08076  -0.07560  -0.06912
  Beta virt. eigenvalues --   -0.06721  -0.05932  -0.05400  -0.04924  -0.04858

 Mulliken atomic charges:
              1
     1  Si  -0.019703
     2  Si   0.006052
     3  Si   0.260369
     4  Si   0.108870
     5  Si   0.260369
     6  Si   0.006052
     7  Si   0.260369
     8  Si  -0.199546
     9  Si   0.260369
    10  Si   0.108870
    11  Si  -0.019703
    12  Si  -0.016183
    13  Si  -0.016183
 Sum of Mulliken atomic charges =   1.00000

 Dipole moment (field-independent basis, Debye):
    X=              0.0000    Y=              0.0000    Z=             -1.7510  Tot=              1.7510
 Quadrupole moment (field-independent basis, Debye-Ang):
   XX=           -146.0049   YY=           -146.4175   ZZ=           -154.0249
   XY=              0.0000   XZ=              0.0000   YZ=              0.0000

 Normal termination of Gaussian 09 at Mon Jan  9 07:34:52 2012.
