 Gaussian 09, Revision A.02,
 Gaussian 09:  AM64L-G09RevA.02 11-Jun-2009

 -----------------------
 # G4 scfcyc=500 scf=xqc
 -----------------------

 --------
 si3-an-d
 --------
 Symbolic Z-matrix:
 Charge = -1 Multiplicity = 2

 SCF Done:  E(UB3LYP) =  -868.451599426     A.U. after   17 cycles
 SCF Done:  E(UB3LYP) =  -868.451629029     A.U. after   11 cycles
 SCF Done:  E(UB3LYP) =  -868.451635690     A.U. after   11 cycles
 Optimization completed.
    -- Stationary point found.
 Normal termination of Gaussian 09 at Mon Mar  5 12:00:57 2012.

 ----------------------------------------------------------
 #N Geom=AllCheck Guess=TCheck SCRF=Check B3LYP/GTBas3 Freq
 ----------------------------------------------------------

 si3-an-d
 --------
 Redundant internal coordinates taken from checkpoint file:
 S9L-ne-d-01.chk
 Charge = -1 Multiplicity = 2

 SCF Done:  E(UB3LYP) =  -868.451635690     A.U. after    1 cycles

  Exact polarizability:  64.887   0.000 137.931   0.000   0.000 130.233
 Approx polarizability: 124.724   0.000 295.455   0.000   0.000 289.810

                     1                      2                      3
                    A1                     B2                     A1
 Frequencies --   294.6137               317.6482               517.0254
 Red. masses --    27.9769                27.9769                27.9769
 Frc consts  --     1.4307                 1.6632                 4.4063
 IR Inten    --     0.0000                 0.4143                 3.3655

 - Thermochemistry -
 -------------------
 Temperature   298.150 Kelvin.  Pressure   1.00000 Atm.
 Atom     1 has atomic number 14 and mass  27.97693

 Molecular mass:    83.93079 amu.
 Principal axes and moments of inertia in atomic units:
                           1         2         3
     Eigenvalues --   240.39276 297.08008 537.47284
           X            0.00000   0.00000   1.00000
           Y            1.00000   0.00000   0.00000
           Z            0.00000   1.00000   0.00000
 This molecule is an asymmetric top.
 Rotational symmetry number  2.
 Rotational temperatures (Kelvin)      0.36030     0.29155     0.16115
 Rotational constants (GHZ):           7.50747     6.07493     3.35783
 Zero-point vibrational energy       6754.6 (Joules/Mol)
                                    1.61440 (Kcal/Mol)
 Warning -- explicit consideration of   3 degrees of freedom as
           vibrations may cause significant error
 Vibrational temperatures:    423.88   457.02   743.88
          (Kelvin)

 Zero-point correction=                           0.002573 (Hartree/Particle)
 Thermal correction to Energy=                    0.006443
 Thermal correction to Enthalpy=                  0.007387
 Thermal correction to Gibbs Free Energy=        -0.024797
 Sum of electronic and zero-point Energies=           -868.449063
 Sum of electronic and thermal Energies=              -868.445193
 Sum of electronic and thermal Enthalpies=            -868.444249
 Sum of electronic and thermal Free Energies=         -868.476433

                     E (Thermal)             CV                S
                      KCal/Mol        Cal/Mol-Kelvin    Cal/Mol-Kelvin
 Total                    4.043             10.498             67.737
 Electronic               0.000              0.000              1.377
 Translational            0.889              2.981             39.196
 Rotational               0.889              2.981             23.777
 Vibrational              2.265              4.536              3.386
 Vibration     1          0.689              1.684              1.447
 Vibration     2          0.704              1.640              1.322
 Vibration     3          0.872              1.212              0.617

 Optimization completed.
    -- Stationary point found.
 Normal termination of Gaussian 09 at Mon Mar  5 12:01:17 2012.

 -----------------------------------------------------------------
 #N Geom=AllCheck Guess=TCheck SCRF=Check CCSD(T,E4T,FrzG4)/GTBas1
 -----------------------------------------------------------------

 si3-an-d
 --------
 Redundant internal coordinates taken from checkpoint file:
 S9L-ne-d-01.chk
 Charge = -1 Multiplicity = 2

 SCF Done:  E(UHF) =  -866.677039252     A.U. after   21 cycles
 E2 =    -0.2410109455D+00 EUMP2 =    -0.86691805019770D+03
 CCSD(T)= -0.86696285334D+03
 546\PMP3-0=-866.9423968\MP4SDQ=-866.9442208\CCSD=-866.9448164\CCSD(T)=
 Normal termination of Gaussian 09 at Mon Mar  5 12:01:25 2012.

 ---------------------------------------------------------
 #N Geom=AllCheck Guess=TCheck SCRF=Check MP4=FrzG4/GTBas2
 ---------------------------------------------------------

 si3-an-d
 --------
 Redundant internal coordinates taken from checkpoint file:
 S9L-ne-d-01.chk
 Charge = -1 Multiplicity = 2

 SCF Done:  E(UHF) =  -866.682972528     A.U. after   20 cycles
 E2 =    -0.2460779062D+00 EUMP2 =    -0.86692905043393D+03
 Normal termination of Gaussian 09 at Mon Mar  5 12:01:30 2012.

 ---------------------------------------------------------
 #N Geom=AllCheck Guess=TCheck SCRF=Check MP4=FrzG4/GTBas3
 ---------------------------------------------------------

 si3-an-d
 --------
 Redundant internal coordinates taken from checkpoint file:
 S9L-ne-d-01.chk
 Charge = -1 Multiplicity = 2

 SCF Done:  E(UHF) =  -866.694357374     A.U. after   20 cycles
 E2 =    -0.3083227298D+00 EUMP2 =    -0.86700268010329D+03
 Normal termination of Gaussian 09 at Mon Mar  5 12:01:43 2012.

 -----------------------------------------------------------
 #N Geom=AllCheck Guess=TCheck SCRF=Check MP2=Full/GTLargeXP
 -----------------------------------------------------------

 si3-an-d
 --------
 Redundant internal coordinates taken from checkpoint file:
 S9L-ne-d-01.chk
 Charge = -1 Multiplicity = 2

 SCF Done:  E(UHF) =  -866.756583621     A.U. after   21 cycles
 E2 =    -0.1197687941D+01 EUMP2 =    -0.86795427156166D+03
 Normal termination of Gaussian 09 at Mon Mar  5 12:06:54 2012.
 SCF Done:  E(UHF) =  -866.774206177     A.U. after   18 cycles
 Normal termination of Gaussian 09 at Mon Mar  5 12:08:10 2012.

                         Standard orientation:
 ---------------------------------------------------------------------
 Center     Atomic      Atomic             Coordinates (Angstroms)
 Number     Number       Type             X           Y           Z
 ---------------------------------------------------------------------
      1         14           0        0.000000    1.219335   -0.633266
      2         14           0        0.000000   -1.219335   -0.633266
      3         14           0        0.000000    0.000000    1.266532
 ---------------------------------------------------------------------

 SCF Done:  E(UHF) =  -866.776542029     A.U. after   16 cycles

 The electronic state is 2-A1.
 Alpha  occ. eigenvalues --  -68.60644 -68.60644 -68.58065  -5.95195  -5.95182
 Alpha  occ. eigenvalues --   -5.92823  -4.05896  -4.05874  -4.05390  -4.05385
 Alpha  occ. eigenvalues --   -4.05302  -4.05272  -4.03435  -4.03038  -4.02914
 Alpha  occ. eigenvalues --   -0.58159  -0.35325  -0.32418  -0.15004  -0.11889
 Alpha  occ. eigenvalues --   -0.11348  -0.09653
 Alpha virt. eigenvalues --    0.12193   0.12236   0.13893   0.14774   0.15033
 Alpha virt. eigenvalues --    0.15050   0.15632   0.15658   0.16293   0.19430
 Alpha virt. eigenvalues --    0.20390   0.22239   0.22574   0.22917   0.27104

  Beta  occ. eigenvalues --  -68.60369 -68.60369 -68.58021  -5.94886  -5.94877
  Beta  occ. eigenvalues --   -5.92777  -4.05158  -4.05153  -4.05140  -4.05109
  Beta  occ. eigenvalues --   -4.04622  -4.04603  -4.03192  -4.03181  -4.02744
  Beta  occ. eigenvalues --   -0.55647  -0.30766  -0.27556  -0.11884  -0.11640
  Beta  occ. eigenvalues --   -0.09416
  Beta virt. eigenvalues --    0.12199   0.12231   0.13951   0.14471   0.14890
  Beta virt. eigenvalues --    0.14982   0.15116   0.15685   0.16351   0.17992
  Beta virt. eigenvalues --    0.19651   0.21272   0.22337   0.22774   0.23178

 Mulliken atomic charges:
              1
     1  Si  -0.289732
     2  Si  -0.289732
     3  Si  -0.420535
 Sum of Mulliken atomic charges =  -1.00000

 Dipole moment (field-independent basis, Debye):
    X=              0.0000    Y=              0.0000    Z=              0.3602  Tot=              0.3602
 Quadrupole moment (field-independent basis, Debye-Ang):
   XX=            -48.1521   YY=            -59.1117   ZZ=            -59.2637
   XY=              0.0000   XZ=              0.0000   YZ=              0.0000

 Normal termination of Gaussian 09 at Mon Mar  5 12:15:43 2012.
