 Gaussian 09, Revision A.02,
 Gaussian 09:  AM64L-G09RevA.02 11-Jun-2009

 --------------------------------------------------------------
 #n g4 test opt=(readfc,noeigentest) # geom=allcheck guess=read
 --------------------------------------------------------------

 ---------------------------------
 No Z-matrix found on checkpoint file.
 Cartesian coordinates read from the checkpoint file:
 si12-anion-2.chk
 Charge = -1 Multiplicity = 2

 SCF Done:  E(UB3LYP) =  -3474.00097541     A.U. after   16 cycles
 SCF Done:  E(UB3LYP) =  -3474.00135196     A.U. after   17 cycles
 SCF Done:  E(UB3LYP) =  -3474.00138081     A.U. after   15 cycles
 SCF Done:  E(UB3LYP) =  -3474.00138340     A.U. after   13 cycles
 SCF Done:  E(UB3LYP) =  -3474.00138326     A.U. after   11 cycles
 Optimization completed.
    -- Stationary point found.
 Normal termination of Gaussian 09 at Thu Feb 23 21:10:26 2012.

 ---------------------------------------------------------------
 #N Geom=AllCheck Guess=TCheck SCRF=Check Test B3LYP/GTBas3 Freq
 ---------------------------------------------------------------

 Si-12 (-) anion 2d struct doublet
 ---------------------------------
 Redundant internal coordinates taken from checkpoint file:
 si12-anion-2.chk
 Charge = -1 Multiplicity = 2

 SCF Done:  E(UB3LYP) =  -3474.00138326     A.U. after    1 cycles

  Exact polarizability: 327.057 -12.711 323.895   0.000   0.000 485.131
 Approx polarizability:1106.236 -44.2991113.188   0.000   0.0001515.208

                     1                      2                      3
                    A'                     A'                     A'
 Frequencies --    63.1342               125.2107               156.1081
 Red. masses --    27.9769                27.9769                27.9769
 Frc consts  --     0.0657                 0.2584                 0.4017
 IR Inten    --     0.7350                 0.0009                 0.8705

                     4                      5                      6
                    A"                     A"                     A'
 Frequencies --   163.2626               172.9316               176.7633
 Red. masses --    27.9769                27.9769                27.9769
 Frc consts  --     0.4394                 0.4929                 0.5150
 IR Inten    --     1.4066                 0.0016                 0.0010

                     7                      8                      9
                    A"                     A"                     A'
 Frequencies --   182.1276               185.8820               202.4103
 Red. masses --    27.9769                27.9769                27.9769
 Frc consts  --     0.5468                 0.5695                 0.6753
 IR Inten    --     0.0908                 0.0030                 0.2634

                    10                     11                     12
                    A'                     A"                     A"
 Frequencies --   219.7802               225.7118               237.8291
 Red. masses --    27.9769                27.9769                27.9769
 Frc consts  --     0.7962                 0.8398                 0.9324
 IR Inten    --     0.5766                 0.0236                 0.2095

                    13                     14                     15
                    A'                     A'                     A"
 Frequencies --   239.8569               256.0599               266.7635
 Red. masses --    27.9769                27.9769                27.9769
 Frc consts  --     0.9483                 1.0808                 1.1730
 IR Inten    --     0.3712                 0.0804                 0.1867

                    16                     17                     18
                    A'                     A'                     A"
 Frequencies --   272.8815               293.2639               296.5799
 Red. masses --    27.9769                27.9769                27.9769
 Frc consts  --     1.2274                 1.4176                 1.4499
 IR Inten    --     0.4506                 0.0043                 0.0082

                    19                     20                     21
                    A'                     A'                     A"
 Frequencies --   304.7621               315.9172               317.3653
 Red. masses --    27.9769                27.9769                27.9769
 Frc consts  --     1.5310                 1.6451                 1.6602
 IR Inten    --     0.1235                 0.8528                 0.5726

                    22                     23                     24
                    A'                     A"                     A'
 Frequencies --   344.5465               345.6425               355.9019
 Red. masses --    27.9769                27.9769                27.9769
 Frc consts  --     1.9568                 1.9693                 2.0879
 IR Inten    --     0.2338                 0.0288                 0.6141

                    25                     26                     27
                    A"                     A'                     A"
 Frequencies --   357.9330               369.0614               384.5050
 Red. masses --    27.9769                27.9769                27.9769
 Frc consts  --     2.1118                 2.2452                 2.4370
 IR Inten    --     0.7679                 1.0386                 0.8284

                    28                     29                     30
                    A'                     A"                     A'
 Frequencies --   407.3271               500.7717               514.6533
 Red. masses --    27.9769                27.9769                27.9769
 Frc consts  --     2.7349                 4.1336                 4.3660
 IR Inten    --     0.3693                 3.0133                 2.7480

 - Thermochemistry -
 -------------------
 Temperature   298.150 Kelvin.  Pressure   1.00000 Atm.
 Atom     1 has atomic number 14 and mass  27.97693

 Molecular mass:   335.72314 amu.
 Principal axes and moments of inertia in atomic units:
                           1         2         3
     Eigenvalues --  3429.530565845.057246246.96552
           X            0.00000   0.70927   0.70493
           Y            0.00000  -0.70493   0.70927
           Z            1.00000   0.00000   0.00000
 This molecule is an asymmetric top.
 Rotational symmetry number  1.
 Warning -- assumption of classical behavior for rotation
           may cause significant error
 Rotational temperatures (Kelvin)      0.02526     0.01482     0.01386
 Rotational constants (GHZ):           0.52624     0.30876     0.28890
 Zero-point vibrational energy      49375.5 (Joules/Mol)
                                   11.80104 (Kcal/Mol)
 Warning -- explicit consideration of  30 degrees of freedom as
           vibrations may cause significant error
 Vibrational temperatures:     90.84   180.15   224.60   234.90   248.81
          (Kelvin)            254.32   262.04   267.44   291.22   316.21
                              324.75   342.18   345.10   368.41   383.81
                              392.62   421.94   426.71   438.48   454.53
                              456.62   495.72   497.30   512.06   514.99
                              531.00   553.22   586.05   720.50   740.47

 Zero-point correction=                           0.018806 (Hartree/Particle)
 Thermal correction to Energy=                    0.035685
 Thermal correction to Enthalpy=                  0.036629
 Thermal correction to Gibbs Free Energy=        -0.025194
 Sum of electronic and zero-point Energies=          -3473.982577
 Sum of electronic and thermal Energies=             -3473.965698
 Sum of electronic and thermal Enthalpies=           -3473.964754
 Sum of electronic and thermal Free Energies=        -3474.026578

                     E (Thermal)             CV                S
                      KCal/Mol        Cal/Mol-Kelvin    Cal/Mol-Kelvin
 Total                   22.393             56.903            130.118
 Electronic               0.000              0.000              1.377
 Translational            0.889              2.981             43.328
 Rotational               0.889              2.981             33.193
 Vibrational             20.615             50.941             52.220
 Vibration     1          0.597              1.972              4.357
 Vibration     2          0.610              1.928              3.018
 Vibration     3          0.620              1.896              2.596
 Vibration     4          0.623              1.888              2.512
 Vibration     5          0.626              1.876              2.403
 Vibration     6          0.628              1.871              2.362
 Vibration     7          0.630              1.864              2.306
 Vibration     8          0.632              1.859              2.269
 Vibration     9          0.639              1.836              2.111
 Vibration    10          0.647              1.811              1.961
 Vibration    11          0.650              1.802              1.913
 Vibration    12          0.656              1.783              1.819
 Vibration    13          0.657              1.779              1.804
 Vibration    14          0.666              1.753              1.688
 Vibration    15          0.672              1.734              1.617
 Vibration    16          0.676              1.723              1.578
 Vibration    17          0.688              1.686              1.455
 Vibration    18          0.690              1.680              1.436
 Vibration    19          0.696              1.665              1.391
 Vibration    20          0.703              1.643              1.331
 Vibration    21          0.704              1.640              1.324
 Vibration    22          0.723              1.586              1.191
 Vibration    23          0.724              1.584              1.186
 Vibration    24          0.731              1.563              1.140
 Vibration    25          0.733              1.559              1.131
 Vibration    26          0.741              1.536              1.084
 Vibration    27          0.753              1.503              1.021
 Vibration    28          0.772              1.454              0.936
 Vibration    29          0.856              1.248              0.656
 Vibration    30          0.870              1.218              0.622

 Optimization completed.
    -- Stationary point found.
 Normal termination of Gaussian 09 at Thu Feb 23 21:29:56 2012.

 ----------------------------------------------------------------------
 #N Geom=AllCheck Guess=TCheck SCRF=Check Test CCSD(T,E4T,FrzG4)/GTBas1
 ----------------------------------------------------------------------

 Si-12 (-) anion 2d struct doublet
 ---------------------------------
 Redundant internal coordinates taken from checkpoint file:
 si12-anion-2.chk
 Charge = -1 Multiplicity = 2

 SCF Done:  E(UHF) =  -3466.85646937     A.U. after   26 cycles
 E2 =    -0.1185855836D+01 EUMP2 =    -0.34680423252061D+04
 CCSD(T)= -0.34681257641D+04
 16\CCSD=-3468.0160432\CCSD(T)=-3468.1257641\S2=0.780688\S2-1=0.764922\
 Normal termination of Gaussian 09 at Thu Feb 23 22:52:03 2012.

 --------------------------------------------------------------
 #N Geom=AllCheck Guess=TCheck SCRF=Check Test MP4=FrzG4/GTBas2
 --------------------------------------------------------------

 Si-12 (-) anion 2d struct doublet
 ---------------------------------
 Redundant internal coordinates taken from checkpoint file:
 si12-anion-2.chk
 Charge = -1 Multiplicity = 2

 SCF Done:  E(UHF) =  -3466.86475244     A.U. after   26 cycles
 E2 =    -0.1207166820D+01 EUMP2 =    -0.34680719192618D+04
 Normal termination of Gaussian 09 at Thu Feb 23 23:35:15 2012.

 --------------------------------------------------------------
 #N Geom=AllCheck Guess=TCheck SCRF=Check Test MP4=FrzG4/GTBas3
 --------------------------------------------------------------

 Si-12 (-) anion 2d struct doublet
 ---------------------------------
 Redundant internal coordinates taken from checkpoint file:
 si12-anion-2.chk
 Charge = -1 Multiplicity = 2

 SCF Done:  E(UHF) =  -3466.93170691     A.U. after   26 cycles
 E2 =    -0.1498928428D+01 EUMP2 =    -0.34684306353407D+04
 Normal termination of Gaussian 09 at Fri Feb 24 03:37:35 2012.

 ----------------------------------------------------------------
 #N Geom=AllCheck Guess=TCheck SCRF=Check Test MP2=Full/GTLargeXP
 ----------------------------------------------------------------

 Si-12 (-) anion 2d struct doublet
 ---------------------------------
 Redundant internal coordinates taken from checkpoint file:
 si12-anion-2.chk
 Charge = -1 Multiplicity = 2

 SCF Done:  E(UHF) =  -3467.16272437     A.U. after   24 cycles
 E2 =    -0.5063541525D+01 EUMP2 =    -0.34722262658910D+04
 Normal termination of Gaussian 09 at Fri Feb 24 09:58:44 2012.
 SCF Done:  E(UHF) =  -3467.22756307     A.U. after   15 cycles
 Normal termination of Gaussian 09 at Fri Feb 24 10:50:09 2012.

                         Standard orientation:
 ---------------------------------------------------------------------
 Center     Atomic      Atomic             Coordinates (Angstroms)
 Number     Number       Type             X           Y           Z
 ---------------------------------------------------------------------
      1         14           0        0.102663   -0.122145    3.612822
      2         14           0        0.102663   -1.679635    1.664974
      3         14           0       -1.027078    0.487235    1.673168
      4         14           0        1.506607    0.609028    1.747049
      5         14           0        0.465368    1.931222    0.000000
      6         14           0       -1.725624   -1.345097    0.000000
      7         14           0        1.853661   -1.067960    0.000000
      8         14           0        0.102663   -1.679635   -1.664974
      9         14           0       -1.027078    0.487235   -1.673168
     10         14           0        1.506607    0.609028   -1.747049
     11         14           0        0.102663   -0.122145   -3.612822
     12         14           0       -1.963112    1.892868    0.000000
 ---------------------------------------------------------------------

 SCF Done:  E(UHF) =  -3467.23946827     A.U. after   17 cycles

 The electronic state is 2-A'.
 Alpha  occ. eigenvalues --  -68.68688 -68.67909 -68.67846 -68.67846 -68.67140
 Alpha  occ. eigenvalues --  -68.66818 -68.66608 -68.66608 -68.66552 -68.66552
 Alpha  occ. eigenvalues --  -68.66034 -68.66034  -6.03173  -6.02568  -6.02567
 Alpha  occ. eigenvalues --   -6.02400  -6.01533  -6.01366  -6.01214  -6.01214
 Alpha  occ. eigenvalues --   -6.01183  -6.01182  -6.00490  -6.00489  -4.14210
 Alpha  occ. eigenvalues --   -4.13440  -4.13313  -4.13147  -4.13147  -4.13010
 Alpha  occ. eigenvalues --   -4.13010  -4.12914  -4.12911  -4.12678  -4.12576
 Alpha  occ. eigenvalues --   -4.12566  -4.11788  -4.11758  -4.11752  -4.11733
 Alpha  occ. eigenvalues --   -4.11693  -4.11688  -4.11554  -4.11553  -4.11531
 Alpha  occ. eigenvalues --   -4.11531  -4.11508  -4.11508  -4.11501  -4.11501
 Alpha  occ. eigenvalues --   -4.11453  -4.11453  -4.11440  -4.11439  -4.10681
 Alpha  occ. eigenvalues --   -4.10681  -4.10668  -4.10668  -4.10653  -4.10653
 Alpha  occ. eigenvalues --   -0.76451  -0.69334  -0.63446  -0.59919  -0.56195
 Alpha  occ. eigenvalues --   -0.46737  -0.46351  -0.45820  -0.42699  -0.39435
 Alpha  occ. eigenvalues --   -0.34882  -0.31202  -0.26834  -0.25859  -0.24759
 Alpha  occ. eigenvalues --   -0.22911  -0.22524  -0.21346  -0.19431  -0.17180
 Alpha  occ. eigenvalues --   -0.16420  -0.16095  -0.14410  -0.14333  -0.14237
 Alpha virt. eigenvalues --    0.09442   0.10177   0.10332   0.10439   0.10755
 Alpha virt. eigenvalues --    0.10872   0.10973   0.11090   0.11092   0.11642
 Alpha virt. eigenvalues --    0.12206   0.12359   0.12876   0.13378   0.13411

  Beta  occ. eigenvalues --  -68.68162 -68.67888 -68.67766 -68.67766 -68.67133
  Beta  occ. eigenvalues --  -68.66817 -68.66592 -68.66592 -68.66538 -68.66538
  Beta  occ. eigenvalues --  -68.66048 -68.66048  -6.02471  -6.02470  -6.02469
  Beta  occ. eigenvalues --   -6.02383  -6.01529  -6.01370  -6.01190  -6.01190
  Beta  occ. eigenvalues --   -6.01157  -6.01157  -6.00504  -6.00504  -4.13014
  Beta  occ. eigenvalues --   -4.13011  -4.12949  -4.12949  -4.12864  -4.12864
  Beta  occ. eigenvalues --   -4.12825  -4.12823  -4.12611  -4.12596  -4.12480
  Beta  occ. eigenvalues --   -4.12242  -4.11772  -4.11763  -4.11734  -4.11707
  Beta  occ. eigenvalues --   -4.11678  -4.11658  -4.11591  -4.11590  -4.11549
  Beta  occ. eigenvalues --   -4.11549  -4.11449  -4.11449  -4.11438  -4.11437
  Beta  occ. eigenvalues --   -4.11414  -4.11414  -4.11408  -4.11407  -4.10720
  Beta  occ. eigenvalues --   -4.10720  -4.10690  -4.10690  -4.10680  -4.10680
  Beta  occ. eigenvalues --   -0.75809  -0.69015  -0.62511  -0.59487  -0.55150
  Beta  occ. eigenvalues --   -0.46388  -0.45126  -0.44615  -0.42543  -0.38893
  Beta  occ. eigenvalues --   -0.34486  -0.27842  -0.26307  -0.25236  -0.24344
  Beta  occ. eigenvalues --   -0.22311  -0.21079  -0.19306  -0.18674  -0.17119
  Beta  occ. eigenvalues --   -0.15715  -0.15591  -0.14407  -0.14112
  Beta virt. eigenvalues --    0.09376   0.09883   0.10178   0.10449   0.10574
  Beta virt. eigenvalues --    0.10808   0.10973   0.11094   0.11105   0.11668
  Beta virt. eigenvalues --    0.12212   0.12306   0.12362   0.12973   0.13414

 Mulliken atomic charges:
              1
     1  Si  -0.205333
     2  Si  -0.057142
     3  Si   0.196893
     4  Si  -0.117768
     5  Si  -0.113474
     6  Si  -0.269994
     7  Si  -0.032012
     8  Si  -0.057142
     9  Si   0.196893
    10  Si  -0.117768
    11  Si  -0.205333
    12  Si  -0.217818
 Sum of Mulliken atomic charges =  -1.00000

 Dipole moment (field-independent basis, Debye):
    X=              0.7344    Y=              0.4358    Z=              0.0000  Tot=              0.8540
 Quadrupole moment (field-independent basis, Debye-Ang):
   XX=           -183.2038   YY=           -182.3072   ZZ=           -208.9985
   XY=             -1.4268   XZ=              0.0000   YZ=              0.0000

Normal termination of Gaussian 09 at Thu Mar  8 14:46:53 2012.
