 Gaussian 09, Revision A.02,
 Gaussian 09:  AM64L-G09RevA.02 11-Jun-2009

 -----------------------
 # G4 scfcyc=500 scf=xqc
 -----------------------

 --------
 si9-an-d
 --------
 Symbolic Z-matrix:
 Charge = -1 Multiplicity = 2

 SCF Done:  E(UB3LYP) =  -2605.49351467     A.U. after   22 cycles
 SCF Done:  E(UB3LYP) =  -2605.49372582     A.U. after   15 cycles
 SCF Done:  E(UB3LYP) =  -2605.49391576     A.U. after   17 cycles
 SCF Done:  E(UB3LYP) =  -2605.49400844     A.U. after   16 cycles
 SCF Done:  E(UB3LYP) =  -2605.49406082     A.U. after   17 cycles
 SCF Done:  E(UB3LYP) =  -2605.49409232     A.U. after   15 cycles
 SCF Done:  E(UB3LYP) =  -2605.49410427     A.U. after   14 cycles
 SCF Done:  E(UB3LYP) =  -2605.49410938     A.U. after   13 cycles
 SCF Done:  E(UB3LYP) =  -2605.49411720     A.U. after   14 cycles
 SCF Done:  E(UB3LYP) =  -2605.49412601     A.U. after   14 cycles
 SCF Done:  E(UB3LYP) =  -2605.49414701     A.U. after   14 cycles
 SCF Done:  E(UB3LYP) =  -2605.49414813     A.U. after   13 cycles
 SCF Done:  E(UB3LYP) =  -2605.49414883     A.U. after   13 cycles
 Optimization completed.
    -- Stationary point found.
 Normal termination of Gaussian 09 at Mon Mar  5 13:32:16 2012.

 ----------------------------------------------------------
 #N Geom=AllCheck Guess=TCheck SCRF=Check B3LYP/GTBas3 Freq
 ----------------------------------------------------------

 si9-an-d
 --------
 Redundant internal coordinates taken from checkpoint file:
 S9L-ne-d-01.chk
 Charge = -1 Multiplicity = 2

 SCF Done:  E(UB3LYP) =  -2605.49414883     A.U. after    1 cycles

  Exact polarizability: 311.719   0.740 290.453  -1.482  -0.900 264.656
 Approx polarizability:1001.784   6.559 944.967  -5.667  -7.827 821.270

                     1                      2                      3
                     A                      A                      A
 Frequencies --    41.9575                93.8791               128.7458
 Red. masses --    27.9769                27.9769                27.9769
 Frc consts  --     0.0290                 0.1453                 0.2732
 IR Inten    --     0.4961                 0.2166                 0.5142

                     4                      5                      6
                     A                      A                      A
 Frequencies --   175.6741               197.6463               210.4001
 Red. masses --    27.9769                27.9769                27.9769
 Frc consts  --     0.5087                 0.6439                 0.7297
 IR Inten    --     0.4561                 0.4576                 0.5374

                     7                      8                      9
                     A                      A                      A
 Frequencies --   218.0067               230.6151               246.1090
 Red. masses --    27.9769                27.9769                27.9769
 Frc consts  --     0.7834                 0.8766                 0.9984
 IR Inten    --     2.0217                 0.3880                 1.0417

                    10                     11                     12
                     A                      A                      A
 Frequencies --   262.5875               274.0525               290.0933
 Red. masses --    27.9769                27.9769                27.9769
 Frc consts  --     1.1366                 1.2380                 1.3872
 IR Inten    --     2.3309                 0.3962                 0.0320

                    13                     14                     15
                     A                      A                      A
 Frequencies --   295.0162               325.6552               335.9904
 Red. masses --    27.9769                27.9769                27.9769
 Frc consts  --     1.4346                 1.7481                 1.8608
 IR Inten    --     0.3701                 0.6204                 0.1101

                    16                     17                     18
                     A                      A                      A
 Frequencies --   352.2207               378.5112               393.5021
 Red. masses --    27.9769                27.9769                27.9769
 Frc consts  --     2.0449                 2.3616                 2.5524
 IR Inten    --     0.0425                 0.1420                 0.4547

                    19                     20                     21
                     A                      A                      A
 Frequencies --   394.6063               445.8760               463.4062
 Red. masses --    27.9769                27.9769                27.9769
 Frc consts  --     2.5667                 3.2770                 3.5398
 IR Inten    --     0.0855                 0.0672                 0.2235

 - Thermochemistry -
 -------------------
 Temperature   298.150 Kelvin.  Pressure   1.00000 Atm.
 Atom     1 has atomic number 14 and mass  27.97693

 Molecular mass:   251.79236 amu.
 Principal axes and moments of inertia in atomic units:
                           1         2         3
     Eigenvalues --  2530.315622898.763963181.40844
           X            1.00000   0.00000   0.00000
           Y            0.00000   1.00000   0.00000
           Z            0.00000   0.00000   1.00000
 This molecule is an asymmetric top.
 Rotational symmetry number  1.
 Warning -- assumption of classical behavior for rotation
           may cause significant error
 Rotational temperatures (Kelvin)      0.03423     0.02988     0.02722
 Rotational constants (GHZ):           0.71325     0.62259     0.56728
 Zero-point vibrational energy      34419.9 (Joules/Mol)
                                    8.22654 (Kcal/Mol)
 Warning -- explicit consideration of  21 degrees of freedom as
           vibrations may cause significant error
 Vibrational temperatures:     60.37   135.07   185.24   252.76   284.37
          (Kelvin)            302.72   313.66   331.80   354.10   377.80
                              394.30   417.38   424.46   468.54   483.41
                              506.77   544.59   566.16   567.75   641.52
                              666.74

 Zero-point correction=                           0.013110 (Hartree/Particle)
 Thermal correction to Energy=                    0.025858
 Thermal correction to Enthalpy=                  0.026802
 Thermal correction to Gibbs Free Energy=        -0.027191
 Sum of electronic and zero-point Energies=          -2605.481039
 Sum of electronic and thermal Energies=             -2605.468291
 Sum of electronic and thermal Enthalpies=           -2605.467347
 Sum of electronic and thermal Free Energies=        -2605.521339

                     E (Thermal)             CV                S
                      KCal/Mol        Cal/Mol-Kelvin    Cal/Mol-Kelvin
 Total                   16.226             41.557            113.637
 Electronic               0.000              0.000              1.377
 Translational            0.889              2.981             42.471
 Rotational               0.889              2.981             31.523
 Vibrational             14.449             35.595             38.265
 Vibration     1          0.595              1.980              5.164
 Vibration     2          0.603              1.954              3.578
 Vibration     3          0.611              1.925              2.965
 Vibration     4          0.628              1.872              2.374
 Vibration     5          0.637              1.843              2.155
 Vibration     6          0.643              1.825              2.040
 Vibration     7          0.646              1.814              1.976
 Vibration     8          0.652              1.794              1.874
 Vibration     9          0.661              1.769              1.758
 Vibration    10          0.670              1.741              1.645
 Vibration    11          0.676              1.721              1.571
 Vibration    12          0.686              1.692              1.473
 Vibration    13          0.689              1.683              1.445
 Vibration    14          0.710              1.624              1.282
 Vibration    15          0.717              1.604              1.231
 Vibration    16          0.729              1.571              1.156
 Vibration    17          0.749              1.516              1.045
 Vibration    18          0.761              1.484              0.987
 Vibration    19          0.762              1.482              0.983
 Vibration    20          0.805              1.370              0.808
 Vibration    21          0.821              1.331              0.756

 Optimization completed.
    -- Stationary point found.
 Normal termination of Gaussian 09 at Mon Mar  5 13:55:30 2012.

 -----------------------------------------------------------------
 #N Geom=AllCheck Guess=TCheck SCRF=Check CCSD(T,E4T,FrzG4)/GTBas1
 -----------------------------------------------------------------

 si9-an-d
 --------
 Redundant internal coordinates taken from checkpoint file:
 S9L-ne-d-01.chk
 Charge = -1 Multiplicity = 2

 SCF Done:  E(UHF) =  -2600.12465104     A.U. after   39 cycles
 E2 =    -0.8796981139D+00 EUMP2 =    -0.26010043491571D+04
 CCSD(T)= -0.26010770915D+04
 -2601.0123988\CCSD=-2600.995438\CCSD(T)=-2601.0770915\S2=0.822043\S2-1
 Normal termination of Gaussian 09 at Mon Mar  5 14:56:01 2012.

 ---------------------------------------------------------
 #N Geom=AllCheck Guess=TCheck SCRF=Check MP4=FrzG4/GTBas2
 ---------------------------------------------------------

 si9-an-d
 --------
 Redundant internal coordinates taken from checkpoint file:
 S9L-ne-d-01.chk
 Charge = -1 Multiplicity = 2

 SCF Done:  E(UHF) =  -2600.13095108     A.U. after   34 cycles
 E2 =    -0.8936972808D+00 EUMP2 =    -0.26010246483578D+04
 Normal termination of Gaussian 09 at Mon Mar  5 15:29:47 2012.

 ---------------------------------------------------------
 #N Geom=AllCheck Guess=TCheck SCRF=Check MP4=FrzG4/GTBas3
 ---------------------------------------------------------

 si9-an-d
 --------
 Redundant internal coordinates taken from checkpoint file:
 S9L-ne-d-01.chk
 Charge = -1 Multiplicity = 2

 SCF Done:  E(UHF) =  -2600.18407976     A.U. after   35 cycles
 E2 =    -0.1109135270D+01 EUMP2 =    -0.26012932150294D+04
 Normal termination of Gaussian 09 at Mon Mar  5 18:23:11 2012.

 -----------------------------------------------------------
 #N Geom=AllCheck Guess=TCheck SCRF=Check MP2=Full/GTLargeXP
 -----------------------------------------------------------

 si9-an-d
 --------
 Redundant internal coordinates taken from checkpoint file:
 S9L-ne-d-01.chk
 Charge = -1 Multiplicity = 2

 SCF Done:  E(UHF) =  -2600.35802476     A.U. after   32 cycles
 E2 =    -0.3781874005D+01 EUMP2 =    -0.26041398987662D+04
 Normal termination of Gaussian 09 at Mon Mar  5 23:33:23 2012.
 SCF Done:  E(UHF) =  -2600.40704649     A.U. after   29 cycles
 Normal termination of Gaussian 09 at Tue Mar  6 01:33:17 2012.

                         Standard orientation:
 ---------------------------------------------------------------------
 Center     Atomic      Atomic             Coordinates (Angstroms)
 Number     Number       Type             X           Y           Z
 ---------------------------------------------------------------------
      1         14           0       -1.048069    1.770929   -1.164127
      2         14           0       -1.058324   -1.509412    1.469159
      3         14           0        1.251087    0.947093   -1.018157
      4         14           0        1.283419   -0.779397    1.027107
      5         14           0       -0.868960    0.870918    1.158790
      6         14           0       -0.478462   -1.455127   -0.900486
      7         14           0        1.865934   -1.318241   -1.255263
      8         14           0        1.452963    1.591021    1.258269
      9         14           0       -2.399588   -0.117784   -0.575293
 ---------------------------------------------------------------------

 SCF Done:  E(UHF) =  -2600.41558060     A.U. after   25 cycles

 The electronic state is 2-A.
 Alpha  occ. eigenvalues --  -68.66401 -68.66329 -68.65494 -68.65492 -68.65384
 Alpha  occ. eigenvalues --  -68.65249 -68.64799 -68.64714 -68.64435  -6.01016
 Alpha  occ. eigenvalues --   -6.00978  -6.00150  -6.00013  -5.99967  -5.99789
 Alpha  occ. eigenvalues --   -5.99352  -5.99313  -5.98948  -4.11504  -4.11470
 Alpha  occ. eigenvalues --   -4.11301  -4.11274  -4.11242  -4.11172  -4.10588
 Alpha  occ. eigenvalues --   -4.10587  -4.10452  -4.10425  -4.10397  -4.10376
 Alpha  occ. eigenvalues --   -4.10304  -4.10247  -4.10175  -4.10115  -4.09928
 Alpha  occ. eigenvalues --   -4.09883  -4.09635  -4.09632  -4.09554  -4.09551
 Alpha  occ. eigenvalues --   -4.09522  -4.09462  -4.09181  -4.09136  -4.09109
 Alpha  occ. eigenvalues --   -0.73605  -0.61411  -0.58803  -0.55858  -0.42643
 Alpha  occ. eigenvalues --   -0.40955  -0.39287  -0.37732  -0.31777  -0.26912
 Alpha  occ. eigenvalues --   -0.20832  -0.19006  -0.18689  -0.17644  -0.17136
 Alpha  occ. eigenvalues --   -0.16304  -0.15549  -0.14098  -0.11337
 Alpha virt. eigenvalues --    0.10214   0.10794   0.10817   0.10949   0.11230
 Alpha virt. eigenvalues --    0.11289   0.11383   0.11579   0.12733   0.13284
 Alpha virt. eigenvalues --    0.13372   0.13759   0.14298   0.14577   0.14784

  Beta  occ. eigenvalues --  -68.66328 -68.66210 -68.65493 -68.65420 -68.65377
  Beta  occ. eigenvalues --  -68.64962 -68.64772 -68.64664 -68.64454  -6.00934
  Beta  occ. eigenvalues --   -6.00820  -6.00129  -5.99956  -5.99943  -5.99457
  Beta  occ. eigenvalues --   -5.99324  -5.99252  -5.98966  -4.11400  -4.11193
  Beta  occ. eigenvalues --   -4.11179  -4.11136  -4.11006  -4.11002  -4.10589
  Beta  occ. eigenvalues --   -4.10457  -4.10417  -4.10409  -4.10284  -4.10206
  Beta  occ. eigenvalues --   -4.10192  -4.10130  -4.09896  -4.09835  -4.09752
  Beta  occ. eigenvalues --   -4.09591  -4.09535  -4.09530  -4.09476  -4.09425
  Beta  occ. eigenvalues --   -4.09346  -4.09246  -4.09166  -4.09127  -4.09096
  Beta  occ. eigenvalues --   -0.72968  -0.60681  -0.57345  -0.54465  -0.41316
  Beta  occ. eigenvalues --   -0.40194  -0.37409  -0.36759  -0.30599  -0.24798
  Beta  occ. eigenvalues --   -0.19537  -0.18725  -0.17402  -0.17134  -0.16422
  Beta  occ. eigenvalues --   -0.15552  -0.14721  -0.13152
  Beta virt. eigenvalues --    0.10221   0.10581   0.10823   0.10852   0.11219
  Beta virt. eigenvalues --    0.11252   0.11353   0.11583   0.11763   0.12742
  Beta virt. eigenvalues --    0.13307   0.13459   0.14334   0.14454   0.14631

 Mulliken atomic charges:
              1
     1  Si  -0.218989
     2  Si  -0.274000
     3  Si   0.024771
     4  Si   0.034708
     5  Si   0.100809
     6  Si   0.054324
     7  Si  -0.270578
     8  Si  -0.275264
     9  Si  -0.175780
 Sum of Mulliken atomic charges =  -1.00000

 Dipole moment (field-independent basis, Debye):
    X=              0.4653    Y=             -0.1722    Z=             -0.7929  Tot=              0.9354
 Quadrupole moment (field-independent basis, Debye-Ang):
   XX=           -148.5481   YY=           -145.7312   ZZ=           -141.0628
   XY=              0.0684   XZ=              0.6768   YZ=              1.0295

 Normal termination of Gaussian 09 at Tue Mar  6 13:28:33 2012.
