 Gaussian 09, Revision A.02,
 Gaussian 09:  AM64L-G09RevA.02 11-Jun-2009

 -----------------------
 # G4 scfcyc=500 scf=xqc
 -----------------------

 -------------
 Si-ca-doublet
 -------------
 Symbolic Z-matrix:
 Charge =  1 Multiplicity = 2

 SCF Done:  E(UB3LYP) =  -289.073832390     A.U. after    9 cycles
 Optimization completed.
    -- Stationary point found.
 Normal termination of Gaussian 09 at Tue Dec  6 18:52:13 2011.

 ----------------------------------------------------------
 #N Geom=AllCheck Guess=TCheck SCRF=Check B3LYP/GTBas3 Freq
 ----------------------------------------------------------

 -------------
 No Z-matrix found on checkpoint file.
 Cartesian coordinates read from the checkpoint file:
 S7B-ne-d-04.chk
 Charge =  1 Multiplicity = 2

 SCF Done:  E(UB3LYP) =  -289.073832390     A.U. after    1 cycles

  Exact polarizability:  16.257   0.000  16.860   0.000   0.000  16.257
 Approx polarizability:  24.869   0.000  18.631   0.000   0.000  24.869

 - Thermochemistry -
 -------------------
 Temperature   298.150 Kelvin.  Pressure   1.00000 Atm.
 Atom     1 has atomic number 14 and mass  27.97693
 Molecular mass:    27.97693 amu.
 Zero-point vibrational energy          0.0 (Joules/Mol)
                                    0.00000 (Kcal/Mol)
 Vibrational temperatures:
          (Kelvin)

 Zero-point correction=                           0.000000 (Hartree/Particle)
 Thermal correction to Energy=                    0.001416
 Thermal correction to Enthalpy=                  0.002360
 Thermal correction to Gibbs Free Energy=        -0.015361
 Sum of electronic and zero-point Energies=           -289.073832
 Sum of electronic and thermal Energies=              -289.072416
 Sum of electronic and thermal Enthalpies=            -289.071472
 Sum of electronic and thermal Free Energies=         -289.089194

                     E (Thermal)             CV                S
                      KCal/Mol        Cal/Mol-Kelvin    Cal/Mol-Kelvin
 Total                    0.889              2.981             37.299
 Electronic               0.000              0.000              1.377
 Translational            0.889              2.981             35.921
 Rotational               0.000              0.000              0.000
 Vibrational              0.000              0.000              0.000

 Optimization completed.
    -- Stationary point found.
 Normal termination of Gaussian 09 at Tue Dec  6 18:52:18 2011.

 -----------------------------------------------------------------
 #N Geom=AllCheck Guess=TCheck SCRF=Check CCSD(T,E4T,FrzG4)/GTBas1
 -----------------------------------------------------------------

 -------------
 No Z-matrix found on checkpoint file.
 Cartesian coordinates read from the checkpoint file:
 S7B-ne-d-04.chk
 Charge =  1 Multiplicity = 2

 SCF Done:  E(UHF) =  -288.551295063     A.U. after    9 cycles
 E2 =    -0.3443443307D-01 EUMP2 =    -0.28858572949646D+03
 CCSD(T)= -0.28860325504D+03
 76872\MP4SDQ=-288.6009463\CCSD=-288.6026968\CCSD(T)=-288.603255\S2=0.7
 Normal termination of Gaussian 09 at Tue Dec  6 18:52:19 2011.

 ---------------------------------------------------------
 #N Geom=AllCheck Guess=TCheck SCRF=Check MP4=FrzG4/GTBas2
 ---------------------------------------------------------

 -------------
 No Z-matrix found on checkpoint file.
 Cartesian coordinates read from the checkpoint file:
 S7B-ne-d-04.chk
 Charge =  1 Multiplicity = 2

 SCF Done:  E(UHF) =  -288.551706083     A.U. after    9 cycles
 E2 =    -0.3479401107D-01 EUMP2 =    -0.28858650009395D+03
 Normal termination of Gaussian 09 at Tue Dec  6 18:52:20 2011.

 ---------------------------------------------------------
 #N Geom=AllCheck Guess=TCheck SCRF=Check MP4=FrzG4/GTBas3
 ---------------------------------------------------------

 -------------
 No Z-matrix found on checkpoint file.
 Cartesian coordinates read from the checkpoint file:
 S7B-ne-d-04.chk
 Charge =  1 Multiplicity = 2

 SCF Done:  E(UHF) =  -288.552490392     A.U. after    9 cycles
 E2 =    -0.3938984283D-01 EUMP2 =    -0.28859188023528D+03
 Normal termination of Gaussian 09 at Tue Dec  6 18:52:22 2011.

 -----------------------------------------------------------
 #N Geom=AllCheck Guess=TCheck SCRF=Check MP2=Full/GTLargeXP
 -----------------------------------------------------------

 -------------
 No Z-matrix found on checkpoint file.
 Cartesian coordinates read from the checkpoint file:
 S7B-ne-d-04.chk
 Charge =  1 Multiplicity = 2

 SCF Done:  E(UHF) =  -288.571512282     A.U. after    9 cycles
 E2 =    -0.3316974668D+00 EUMP2 =    -0.28890320974912D+03
 Normal termination of Gaussian 09 at Tue Dec  6 18:52:26 2011.
 SCF Done:  E(UHF) =  -288.577771627     A.U. after    8 cycles
 Normal termination of Gaussian 09 at Tue Dec  6 18:52:29 2011.

                         Standard orientation:
 ---------------------------------------------------------------------
 Center     Atomic      Atomic             Coordinates (Angstroms)
 Number     Number       Type             X           Y           Z
 ---------------------------------------------------------------------
      1         14           0        0.000000    0.000000    0.000000
 ---------------------------------------------------------------------

 SCF Done:  E(UHF) =  -288.578170074     A.U. after    8 cycles

 Unable to determine electronic state:  an orbital has unidentified symmetry.
 Alpha  occ. eigenvalues --  -69.17689  -6.51491  -4.62456  -4.61071  -4.61071
 Alpha  occ. eigenvalues --   -0.88478  -0.59624
 Alpha virt. eigenvalues --   -0.26259  -0.26259  -0.10622  -0.07246  -0.07030
 Alpha virt. eigenvalues --   -0.07030   0.02890   0.03248   0.03248   0.04706
 Alpha virt. eigenvalues --    0.04706   0.06440   0.07331   0.07331   0.08010

  Beta  occ. eigenvalues --  -69.17016  -6.50783  -4.60743  -4.60743  -4.59085
  Beta  occ. eigenvalues --   -0.79627
  Beta virt. eigenvalues --   -0.25178  -0.25178  -0.20076  -0.10267  -0.06951
  Beta virt. eigenvalues --   -0.06951  -0.06173   0.04902   0.04902   0.07514
  Beta virt. eigenvalues --    0.07514   0.07563   0.07563   0.07986   0.09280

 Mulliken atomic charges:
              1
     1  Si   1.000000
 Sum of Mulliken atomic charges =   1.00000

 Dipole moment (field-independent basis, Debye):
    X=              0.0000    Y=              0.0000    Z=              0.0000  Tot=              0.0000
 Quadrupole moment (field-independent basis, Debye-Ang):
   XX=             -7.6850   YY=            -11.6174   ZZ=             -7.6850
   XY=              0.0000   XZ=              0.0000   YZ=              0.0000

 Normal termination of Gaussian 09 at Tue Dec  6 18:52:39 2011.
