 Gaussian 09, Revision A.02,
 Gaussian 09:  AM64L-G09RevA.02 11-Jun-2009

 -----------------------
 # G4 scfcyc=500 scf=xqc
 -----------------------

 -----
 si6-c
 -----
 Symbolic Z-matrix:
 Charge =  1 Multiplicity = 2

 SCF Done:  E(UB3LYP) =  -1736.65180943     A.U. after   17 cycles
 SCF Done:  E(UB3LYP) =  -1736.65185972     A.U. after   11 cycles
 SCF Done:  E(UB3LYP) =  -1736.65189823     A.U. after   13 cycles
 SCF Done:  E(UB3LYP) =  -1736.65190736     A.U. after   10 cycles
 SCF Done:  E(UB3LYP) =  -1736.65190822     A.U. after   10 cycles
 Optimization completed.
    -- Stationary point found.
 Normal termination of Gaussian 09 at Tue Dec 20 23:03:16 2011.

 ----------------------------------------------------------
 #N Geom=AllCheck Guess=TCheck SCRF=Check B3LYP/GTBas3 Freq
 ----------------------------------------------------------

 si6-c
 -----
 Redundant internal coordinates taken from checkpoint file:
 S9L-ne-d-01.chk
 Charge =  1 Multiplicity = 2

 SCF Done:  E(UB3LYP) =  -1736.65190822     A.U. after    1 cycles

  Exact polarizability: 164.909   0.000 140.758   0.000   0.000 183.807
 Approx polarizability: 483.463   0.000 436.843   0.000   0.000 550.234

                     1                      2                      3
                    B1                     B2                     A1
 Frequencies --    75.7556               103.9123               140.5216
 Red. masses --    27.9769                27.9769                27.9769
 Frc consts  --     0.0946                 0.1780                 0.3255
 IR Inten    --     0.1994                 0.0017                 0.0262

                     4                      5                      6
                    A1                     B1                     B2
 Frequencies --   293.4680               307.9897               322.5511
 Red. masses --    27.9769                27.9769                27.9769
 Frc consts  --     1.4196                 1.5636                 1.7149
 IR Inten    --     0.6759                 0.3101                 0.2496

                     7                      8                      9
                    A1                     B2                     A2
 Frequencies --   336.2029               355.9545               383.4205
 Red. masses --    27.9769                27.9769                27.9769
 Frc consts  --     1.8632                 2.0885                 2.4233
 IR Inten    --     0.4362                 0.5816                 0.0000

                    10                     11                     12
                    A1                     B1                     A1
 Frequencies --   406.7935               417.6964               446.1554
 Red. masses --    27.9769                27.9769                27.9769
 Frc consts  --     2.7277                 2.8759                 3.2811
 IR Inten    --    27.2503                 5.4586                 0.0030

 - Thermochemistry -
 -------------------
 Temperature   298.150 Kelvin.  Pressure   1.00000 Atm.
 Atom     1 has atomic number 14 and mass  27.97693

 Molecular mass:   167.86157 amu.
 Principal axes and moments of inertia in atomic units:
                           1         2         3
     Eigenvalues --  1060.282941273.412811509.22262
           X            0.00000   1.00000   0.00000
           Y            0.00000   0.00000   1.00000
           Z            1.00000   0.00000   0.00000
 This molecule is an asymmetric top.
 Rotational symmetry number  2.
 Warning -- assumption of classical behavior for rotation
           may cause significant error
 Rotational temperatures (Kelvin)      0.08169     0.06802     0.05739
 Rotational constants (GHZ):           1.70213     1.41725     1.19581
 Zero-point vibrational energy      21475.5 (Joules/Mol)
                                    5.13276 (Kcal/Mol)
 Warning -- explicit consideration of  12 degrees of freedom as
           vibrations may cause significant error
 Vibrational temperatures:    109.00   149.51   202.18   422.23   443.13
          (Kelvin)            464.08   483.72   512.14   551.66   585.28
                              600.97   641.92

 Zero-point correction=                           0.008180 (Hartree/Particle)
 Thermal correction to Energy=                    0.016333
 Thermal correction to Enthalpy=                  0.017277
 Thermal correction to Gibbs Free Energy=        -0.025819
 Sum of electronic and zero-point Energies=          -1736.643729
 Sum of electronic and thermal Energies=             -1736.635576
 Sum of electronic and thermal Enthalpies=           -1736.634631
 Sum of electronic and thermal Free Energies=        -1736.677727

                     E (Thermal)             CV                S
                      KCal/Mol        Cal/Mol-Kelvin    Cal/Mol-Kelvin
 Total                   10.249             25.689             90.702
 Electronic               0.000              0.000              1.377
 Translational            0.889              2.981             41.262
 Rotational               0.889              2.981             27.723
 Vibrational              8.471             19.727             20.339
 Vibration     1          0.599              1.965              3.998
 Vibration     2          0.605              1.946              3.380
 Vibration     3          0.615              1.913              2.797
 Vibration     4          0.688              1.686              1.454
 Vibration     5          0.698              1.659              1.373
 Vibration     6          0.708              1.630              1.297
 Vibration     7          0.717              1.603              1.230
 Vibration     8          0.731              1.563              1.140
 Vibration     9          0.753              1.506              1.026
 Vibration    10          0.772              1.455              0.938
 Vibration    11          0.781              1.432              0.900
 Vibration    12          0.805              1.369              0.807

 Optimization completed.
    -- Stationary point found.
 Normal termination of Gaussian 09 at Tue Dec 20 23:05:28 2011.

 -----------------------------------------------------------------
 #N Geom=AllCheck Guess=TCheck SCRF=Check CCSD(T,E4T,FrzG4)/GTBas1
 -----------------------------------------------------------------

 si6-c
 -----
 Redundant internal coordinates taken from checkpoint file:
 S9L-ne-d-01.chk
 Charge =  1 Multiplicity = 2

 SCF Done:  E(UHF) =  -1733.10365470     A.U. after   21 cycles
 E2 =    -0.5541464775D+00 EUMP2 =    -0.17336578011797D+04
 CCSD(T)= -0.17337099835D+04
 536\CCSD=-1733.6593406\CCSD(T)=-1733.7099835\S2=0.811862\S2-1=0.773745
 Normal termination of Gaussian 09 at Tue Dec 20 23:07:22 2011.

 ---------------------------------------------------------
 #N Geom=AllCheck Guess=TCheck SCRF=Check MP4=FrzG4/GTBas2
 ---------------------------------------------------------

 si6-c
 -----
 Redundant internal coordinates taken from checkpoint file:
 S9L-ne-d-01.chk
 Charge =  1 Multiplicity = 2

 SCF Done:  E(UHF) =  -1733.10805535     A.U. after   19 cycles
 E2 =    -0.5574052692D+00 EUMP2 =    -0.17336654606174D+04
 Normal termination of Gaussian 09 at Tue Dec 20 23:08:11 2011.

 ---------------------------------------------------------
 #N Geom=AllCheck Guess=TCheck SCRF=Check MP4=FrzG4/GTBas3
 ---------------------------------------------------------

 si6-c
 -----
 Redundant internal coordinates taken from checkpoint file:
 S9L-ne-d-01.chk
 Charge =  1 Multiplicity = 2

 SCF Done:  E(UHF) =  -1733.15861256     A.U. after   21 cycles
 E2 =    -0.6785920113D+00 EUMP2 =    -0.17338372045748D+04
 Normal termination of Gaussian 09 at Tue Dec 20 23:12:13 2011.

 -----------------------------------------------------------
 #N Geom=AllCheck Guess=TCheck SCRF=Check MP2=Full/GTLargeXP
 -----------------------------------------------------------

 si6-c
 -----
 Redundant internal coordinates taken from checkpoint file:
 S9L-ne-d-01.chk
 Charge =  1 Multiplicity = 2

 SCF Done:  E(UHF) =  -1733.27514011     A.U. after   17 cycles
 E2 =    -0.2453649087D+01 EUMP2 =    -0.17357287891977D+04
 Normal termination of Gaussian 09 at Tue Dec 20 23:32:36 2011.
 SCF Done:  E(UHF) =  -1733.30783143     A.U. after   18 cycles
 Normal termination of Gaussian 09 at Tue Dec 20 23:42:52 2011.

                         Standard orientation:
 ---------------------------------------------------------------------
 Center     Atomic      Atomic             Coordinates (Angstroms)
 Number     Number       Type             X           Y           Z
 ---------------------------------------------------------------------
      1         14           0        0.000000    1.436347    0.222628
      2         14           0        0.000000    0.000000    2.125674
      3         14           0        0.000000    0.000000   -1.952086
      4         14           0       -1.800898    0.000000   -0.309423
      5         14           0        1.800898    0.000000   -0.309423
      6         14           0        0.000000   -1.436347    0.222628
 ---------------------------------------------------------------------

 SCF Done:  E(UHF) =  -1733.31361376     A.U. after   14 cycles

 The electronic state is 2-B1.
 Alpha  occ. eigenvalues --  -68.99907 -68.99183 -68.99183 -68.98789 -68.97035
 Alpha  occ. eigenvalues --  -68.97035  -6.34116  -6.33625  -6.33624  -6.33095
 Alpha  occ. eigenvalues --   -6.31738  -6.31736  -4.44362  -4.44361  -4.44149
 Alpha  occ. eigenvalues --   -4.44100  -4.44078  -4.43648  -4.43648  -4.43646
 Alpha  occ. eigenvalues --   -4.43646  -4.43247  -4.43172  -4.43107  -4.42059
 Alpha  occ. eigenvalues --   -4.42058  -4.42018  -4.42009  -4.41907  -4.41907
 Alpha  occ. eigenvalues --   -1.05005  -0.84040  -0.83902  -0.78706  -0.65561
 Alpha  occ. eigenvalues --   -0.61993  -0.52164  -0.51395  -0.51195  -0.50478
 Alpha  occ. eigenvalues --   -0.49734  -0.46682
 Alpha virt. eigenvalues --   -0.17857  -0.15281  -0.14785  -0.14176  -0.09248
 Alpha virt. eigenvalues --   -0.08414  -0.07561  -0.06643  -0.06399  -0.04562
 Alpha virt. eigenvalues --   -0.04464  -0.04434  -0.04421  -0.03874  -0.03782

  Beta  occ. eigenvalues --  -68.99908 -68.98836 -68.98836 -68.98755 -68.96991
  Beta  occ. eigenvalues --  -68.96990  -6.34117  -6.33204  -6.33204  -6.33059
  Beta  occ. eigenvalues --   -6.31695  -6.31693  -4.44130  -4.44112  -4.44092
  Beta  occ. eigenvalues --   -4.43476  -4.43475  -4.43472  -4.43471  -4.43189
  Beta  occ. eigenvalues --   -4.43170  -4.42956  -4.42794  -4.42792  -4.42017
  Beta  occ. eigenvalues --   -4.42009  -4.41896  -4.41896  -4.41769  -4.41768
  Beta  occ. eigenvalues --   -1.03813  -0.83543  -0.80664  -0.78173  -0.63910
  Beta  occ. eigenvalues --   -0.53113  -0.51401  -0.51209  -0.50288  -0.50004
  Beta  occ. eigenvalues --   -0.46790
  Beta virt. eigenvalues --   -0.20042  -0.17831  -0.14887  -0.14476  -0.14040
  Beta virt. eigenvalues --   -0.08807  -0.08223  -0.07243  -0.06593  -0.05952
  Beta virt. eigenvalues --   -0.04423  -0.04297  -0.04290  -0.04228  -0.03733

 Mulliken atomic charges:
              1
     1  Si   0.098536
     2  Si   0.271476
     3  Si   0.199460
     4  Si   0.165997
     5  Si   0.165997
     6  Si   0.098536
 Sum of Mulliken atomic charges =   1.00000

 Dipole moment (field-independent basis, Debye):
    X=              0.0000    Y=              0.0000    Z=              0.1414  Tot=              0.1414
 Quadrupole moment (field-independent basis, Debye-Ang):
   XX=            -63.0808   YY=            -66.1023   ZZ=            -65.3420
   XY=              0.0000   XZ=              0.0000   YZ=              0.0000

 Normal termination of Gaussian 09 at Wed Dec 21 00:36:36 2011.
