 Gaussian 09, Revision A.02,
 Gaussian 09:  AM64L-G09RevA.02 11-Jun-2009

 -----------------------
 # G4 scfcyc=500 scf=xqc
 -----------------------

 -----
 si2-n
 -----
 Symbolic Z-matrix:
 Charge =  0 Multiplicity = 3

 SCF Done:  E(UB3LYP) =  -578.853797076     A.U. after   11 cycles
 SCF Done:  E(UB3LYP) =  -578.856746789     A.U. after    9 cycles
 SCF Done:  E(UB3LYP) =  -578.857042416     A.U. after    9 cycles
 Optimization completed.
    -- Stationary point found.
 Normal termination of Gaussian 09 at Sat Jan  7 10:00:27 2012.

 ----------------------------------------------------------
 #N Geom=AllCheck Guess=TCheck SCRF=Check B3LYP/GTBas3 Freq
 ----------------------------------------------------------

 si2-n
 -----
 Redundant internal coordinates taken from checkpoint file:
 S9L-ne-d-01.chk
 Charge =  0 Multiplicity = 3

 SCF Done:  E(UB3LYP) =  -578.857042416     A.U. after    1 cycles

  Exact polarizability:  39.015   0.000   6.592   0.000   0.000 100.317
 Approx polarizability:  66.588   0.000  72.267   0.000   0.000 269.147

                     1
                    SGG
 Frequencies --   548.2579
 Red. masses --    27.9769
 Frc consts  --     4.9547
 IR Inten    --     0.0000

 - Thermochemistry -
 -------------------
 Temperature   298.150 Kelvin.  Pressure   1.00000 Atm.
 Atom     1 has atomic number 14 and mass  27.97693

 Molecular mass:    55.95386 amu.
 Principal axes and moments of inertia in atomic units:
                           1         2         3
     Eigenvalues --     0.00000 233.55917 233.55917
           X            0.00000   1.00000   0.00000
           Y            0.00000   0.00000   1.00000
           Z            1.00000   0.00000   0.00000
 This molecule is a prolate symmetric top.
 Rotational symmetry number  2.
 Rotational temperature (Kelvin)      0.37084
 Rotational constant (GHZ):           7.727126
 Zero-point vibrational energy       3279.3 (Joules/Mol)
                                    0.78377 (Kcal/Mol)
 Warning -- explicit consideration of   1 degrees of freedom as
           vibrations may cause significant error
 Vibrational temperatures:    788.82
          (Kelvin)

 Zero-point correction=                           0.001249 (Hartree/Particle)
 Thermal correction to Energy=                    0.003800
 Thermal correction to Enthalpy=                  0.004744
 Thermal correction to Gibbs Free Energy=        -0.021208
 Sum of electronic and zero-point Energies=           -578.855793
 Sum of electronic and thermal Energies=              -578.853242
 Sum of electronic and thermal Enthalpies=            -578.852298
 Sum of electronic and thermal Free Energies=         -578.878250

                     E (Thermal)             CV                S
                      KCal/Mol        Cal/Mol-Kelvin    Cal/Mol-Kelvin
 Total                    2.385              6.112             54.622
 Electronic               0.000              0.000              2.183
 Translational            0.889              2.981             37.987
 Rotational               0.592              1.987             13.903
 Vibrational              0.903              1.143              0.548
 Vibration     1          0.903              1.143              0.548

 Optimization completed.
    -- Stationary point found.
 Normal termination of Gaussian 09 at Sat Jan  7 10:00:36 2012.

 -----------------------------------------------------------------
 #N Geom=AllCheck Guess=TCheck SCRF=Check CCSD(T,E4T,FrzG4)/GTBas1
 -----------------------------------------------------------------

 si2-n
 -----
 Redundant internal coordinates taken from checkpoint file:
 S9L-ne-d-01.chk
 Charge =  0 Multiplicity = 3

 SCF Done:  E(UHF) =  -577.700920963     A.U. after   12 cycles
 E2 =    -0.1402955109D+00 EUMP2 =    -0.57784121647383D+03
 CCSD(T)= -0.57787716170D+03
 Normal termination of Gaussian 09 at Sat Jan  7 10:00:40 2012.

 ---------------------------------------------------------
 #N Geom=AllCheck Guess=TCheck SCRF=Check MP4=FrzG4/GTBas2
 ---------------------------------------------------------

 si2-n
 -----
 Redundant internal coordinates taken from checkpoint file:
 S9L-ne-d-01.chk
 Charge =  0 Multiplicity = 3

 SCF Done:  E(UHF) =  -577.701643337     A.U. after   11 cycles
 E2 =    -0.1415095685D+00 EUMP2 =    -0.57784315290524D+03
 Normal termination of Gaussian 09 at Sat Jan  7 10:00:43 2012.

 ---------------------------------------------------------
 #N Geom=AllCheck Guess=TCheck SCRF=Check MP4=FrzG4/GTBas3
 ---------------------------------------------------------

 si2-n
 -----
 Redundant internal coordinates taken from checkpoint file:
 S9L-ne-d-01.chk
 Charge =  0 Multiplicity = 3

 SCF Done:  E(UHF) =  -577.712423152     A.U. after   12 cycles
 E2 =    -0.1708054184D+00 EUMP2 =    -0.57788322857044D+03
 Normal termination of Gaussian 09 at Sat Jan  7 10:00:49 2012.

 -----------------------------------------------------------
 #N Geom=AllCheck Guess=TCheck SCRF=Check MP2=Full/GTLargeXP
 -----------------------------------------------------------

 si2-n
 -----
 Redundant internal coordinates taken from checkpoint file:
 S9L-ne-d-01.chk
 Charge =  0 Multiplicity = 3

 SCF Done:  E(UHF) =  -577.750993141     A.U. after   11 cycles
 E2 =    -0.7613707648D+00 EUMP2 =    -0.57851236390545D+03
 Normal termination of Gaussian 09 at Sat Jan  7 10:01:32 2012.
 SCF Done:  E(UHF) =  -577.763388218     A.U. after   10 cycles
 Normal termination of Gaussian 09 at Sat Jan  7 10:01:45 2012.

                         Standard orientation:
 ---------------------------------------------------------------------
 Center     Atomic      Atomic             Coordinates (Angstroms)
 Number     Number       Type             X           Y           Z
 ---------------------------------------------------------------------
      1         14           0        0.000000    0.000000    1.081147
      2         14           0        0.000000    0.000000   -1.081147
 ---------------------------------------------------------------------

 SCF Done:  E(UHF) =  -577.764725670     A.U. after    9 cycles

 Unable to determine electronic state:  an orbital has unidentified symmetry.
 Alpha  occ. eigenvalues --  -68.81574 -68.81574  -6.16103  -6.16062  -4.26982
 Alpha  occ. eigenvalues --   -4.26816  -4.26564  -4.26545  -4.25952  -4.25934
 Alpha  occ. eigenvalues --   -0.74621  -0.51130  -0.35580  -0.32331  -0.28576
 Alpha virt. eigenvalues --    0.00847   0.02536   0.03126   0.04357   0.04666
 Alpha virt. eigenvalues --    0.05112   0.06109   0.06960   0.07593   0.11381
 Alpha virt. eigenvalues --    0.14544   0.19012   0.21448   0.23020   0.23374

  Beta  occ. eigenvalues --  -68.81020 -68.81020  -6.15534  -6.15512  -4.25677
  Beta  occ. eigenvalues --   -4.25661  -4.25219  -4.25205  -4.24951  -4.24805
  Beta  occ. eigenvalues --   -0.62309  -0.40629  -0.27107
  Beta virt. eigenvalues --   -0.02244  -0.01431   0.03244   0.03428   0.04857
  Beta virt. eigenvalues --    0.05192   0.05450   0.05776   0.06712   0.07970
  Beta virt. eigenvalues --    0.10171   0.11835   0.16562   0.21990   0.24243

 Mulliken atomic charges:
              1
     1  Si   0.000000
     2  Si   0.000000
 Sum of Mulliken atomic charges =   0.00000

 Dipole moment (field-independent basis, Debye):
    X=              0.0000    Y=              0.0000    Z=              0.0000  Tot=              0.0000
 Quadrupole moment (field-independent basis, Debye-Ang):
   XX=            -26.2404   YY=            -31.2173   ZZ=            -24.4205
   XY=              0.0000   XZ=              0.0000   YZ=              0.0000

 Normal termination of Gaussian 09 at Sat Jan  7 10:03:11 2012.
