 Gaussian 09, Revision A.02,
 Gaussian 09:  AM64L-G09RevA.02 11-Jun-2009

 ---------------------------------------
 # G4 opt=(Cartesian) scfcyc=500 scf=xqc
 ---------------------------------------

 -----
 si4-n
 -----
 Symbolic Z-matrix:
 Charge =  0 Multiplicity = 1

 SCF Done:  E(RB3LYP) =  -1157.90410560     A.U. after   11 cycles
 SCF Done:  E(RB3LYP) =  -1157.90411756     A.U. after    7 cycles
 SCF Done:  E(RB3LYP) =  -1157.90412061     A.U. after    7 cycles
 Optimization completed.
    -- Stationary point found.
 Normal termination of Gaussian 09 at Wed Jan  4 11:50:21 2012.

 ----------------------------------------------------------
 #N Geom=AllCheck Guess=TCheck SCRF=Check B3LYP/GTBas3 Freq
 ----------------------------------------------------------

 -----
 No Z-matrix found on checkpoint file.
 Cartesian coordinates read from the checkpoint file:
 S9L-ne-d-01.chk
 Charge =  0 Multiplicity = 1

 SCF Done:  E(RB3LYP) =  -1157.90412061     A.U. after    1 cycles

  Exact polarizability:  74.671   0.000 128.478   0.000   0.000 178.717
 Approx polarizability: 148.417   0.000 334.654   0.000   0.000 471.492

                     1                      2                      3
                    B3U                    B2U                    AG
 Frequencies --    82.2697               237.5144               346.6418
 Red. masses --    27.9769                27.9769                27.9769
 Frc consts  --     0.1116                 0.9299                 1.9807
 IR Inten    --     3.1456                 1.9167                 0.0000

                     4                      5                      6
                    B3G                    AG                     B1U
 Frequencies --   428.3620               463.4217               495.2330
 Red. masses --    27.9769                27.9769                27.9769
 Frc consts  --     3.0246                 3.5400                 4.0427
 IR Inten    --     0.0000                 0.0000                72.6874

 - Thermochemistry -
 -------------------
 Temperature   298.150 Kelvin.  Pressure   1.00000 Atm.
 Atom     1 has atomic number 14 and mass  27.97693

 Molecular mass:   111.90771 amu.
 Principal axes and moments of inertia in atomic units:
                           1         2         3
     Eigenvalues --   292.82628 786.511581079.33786
           X            0.00000   0.00000   1.00000
           Y            0.00000   1.00000   0.00000
           Z            1.00000   0.00000   0.00000
 This molecule is an asymmetric top.
 Rotational symmetry number  4.
 Rotational temperatures (Kelvin)      0.29579     0.11012     0.08025
 Rotational constants (GHZ):           6.16318     2.29461     1.67208
 Zero-point vibrational energy      12282.3 (Joules/Mol)
                                    2.93554 (Kcal/Mol)
 Warning -- explicit consideration of   6 degrees of freedom as
           vibrations may cause significant error
 Vibrational temperatures:    118.37   341.73   498.74   616.32   666.76
          (Kelvin)            712.53

 Zero-point correction=                           0.004678 (Hartree/Particle)
 Thermal correction to Energy=                    0.009912
 Thermal correction to Enthalpy=                  0.010856
 Thermal correction to Gibbs Free Energy=        -0.024037
 Sum of electronic and zero-point Energies=          -1157.899443
 Sum of electronic and thermal Energies=             -1157.894209
 Sum of electronic and thermal Enthalpies=           -1157.893264
 Sum of electronic and thermal Free Energies=        -1157.928157

                     E (Thermal)             CV                S
                      KCal/Mol        Cal/Mol-Kelvin    Cal/Mol-Kelvin
 Total                    6.220             15.289             73.438
 Electronic               0.000              0.000              0.000
 Translational            0.889              2.981             40.053
 Rotational               0.889              2.981             24.256
 Vibrational              4.442              9.327              9.129
 Vibration     1          0.600              1.961              3.836
 Vibration     2          0.656              1.783              1.821
 Vibration     3          0.725              1.582              1.181
 Vibration     4          0.790              1.409              0.864
 Vibration     5          0.821              1.331              0.756
 Vibration     6          0.851              1.261              0.670

 Optimization completed.
    -- Stationary point found.
 Normal termination of Gaussian 09 at Wed Jan  4 11:50:41 2012.

 -----------------------------------------------------------------
 #N Geom=AllCheck Guess=TCheck SCRF=Check CCSD(T,E4T,FrzG4)/GTBas1
 -----------------------------------------------------------------

 -----
 No Z-matrix found on checkpoint file.
 Cartesian coordinates read from the checkpoint file:
 S9L-ne-d-01.chk
 Charge =  0 Multiplicity = 1

 SCF Done:  E(RHF) =  -1155.54854277     A.U. after   11 cycles
 E2 =    -0.3431604245D+00 EUMP2 =    -0.11558917031981D+04
 CCSD(T)= -0.11559408502D+04
 Normal termination of Gaussian 09 at Wed Jan  4 11:50:47 2012.

 ---------------------------------------------------------
 #N Geom=AllCheck Guess=TCheck SCRF=Check MP4=FrzG4/GTBas2
 ---------------------------------------------------------

 -----
 No Z-matrix found on checkpoint file.
 Cartesian coordinates read from the checkpoint file:
 S9L-ne-d-01.chk
 Charge =  0 Multiplicity = 1

 SCF Done:  E(RHF) =  -1155.55049606     A.U. after   11 cycles
 E2 =    -0.3466500398D+00 EUMP2 =    -0.11558971461021D+04
 Normal termination of Gaussian 09 at Wed Jan  4 11:50:51 2012.

 ---------------------------------------------------------
 #N Geom=AllCheck Guess=TCheck SCRF=Check MP4=FrzG4/GTBas3
 ---------------------------------------------------------

 -----
 No Z-matrix found on checkpoint file.
 Cartesian coordinates read from the checkpoint file:
 S9L-ne-d-01.chk
 Charge =  0 Multiplicity = 1

 SCF Done:  E(RHF) =  -1155.57209245     A.U. after   11 cycles
 E2 =    -0.4223124587D+00 EUMP2 =    -0.11559944049110D+04
 Normal termination of Gaussian 09 at Wed Jan  4 11:51:04 2012.

 -----------------------------------------------------------
 #N Geom=AllCheck Guess=TCheck SCRF=Check MP2=Full/GTLargeXP
 -----------------------------------------------------------

 -----
 No Z-matrix found on checkpoint file.
 Cartesian coordinates read from the checkpoint file:
 S9L-ne-d-01.chk
 Charge =  0 Multiplicity = 1

 SCF Done:  E(RHF) =  -1155.64918611     A.U. after   10 cycles
 E2 =    -0.1604904542D+01 EUMP2 =    -0.11572540906505D+04
 Normal termination of Gaussian 09 at Wed Jan  4 11:52:57 2012.
 SCF Done:  E(RHF) =  -1155.67218550     A.U. after    9 cycles
 Normal termination of Gaussian 09 at Wed Jan  4 11:53:58 2012.

                         Standard orientation:
 ---------------------------------------------------------------------
 Center     Atomic      Atomic             Coordinates (Angstroms)
 Number     Number       Type             X           Y           Z
 ---------------------------------------------------------------------
      1         14           0        0.000000    1.210573    0.000000
      2         14           0        0.000000    0.000000    1.983986
      3         14           0        0.000000   -1.210573    0.000000
      4         14           0        0.000000    0.000000   -1.983986
 ---------------------------------------------------------------------

 SCF Done:  E(RHF) =  -1155.67552856     A.U. after    8 cycles

 The electronic state is 1-AG.
 Alpha  occ. eigenvalues --  -68.81730 -68.81730 -68.78215 -68.78215  -6.16134
 Alpha  occ. eigenvalues --   -6.16133  -6.13018  -6.13005  -4.26263  -4.26263
 Alpha  occ. eigenvalues --   -4.26223  -4.26222  -4.26173  -4.26173  -4.23323
 Alpha  occ. eigenvalues --   -4.23316  -4.23311  -4.23273  -4.23232  -4.23228
 Alpha  occ. eigenvalues --   -0.80026  -0.63715  -0.53732  -0.43912  -0.33108
 Alpha  occ. eigenvalues --   -0.31780  -0.30883  -0.30394
 Alpha virt. eigenvalues --   -0.03237   0.01427   0.01429   0.03050   0.03377
 Alpha virt. eigenvalues --    0.03678   0.04046   0.04895   0.05479   0.06154
 Alpha virt. eigenvalues --    0.06226   0.06745   0.07132   0.07402   0.07830

 Mulliken atomic charges:
              1
     1  Si  -0.101151
     2  Si   0.101151
     3  Si  -0.101151
     4  Si   0.101151
 Sum of Mulliken atomic charges =   0.00000

 Dipole moment (field-independent basis, Debye):
    X=              0.0000    Y=              0.0000    Z=              0.0000  Tot=              0.0000
 Quadrupole moment (field-independent basis, Debye-Ang):
   XX=            -51.1665   YY=            -57.0407   ZZ=            -57.6139
   XY=              0.0000   XZ=              0.0000   YZ=              0.0000

 CCSD(T)/G3Bas1=-1155.9408502\MP2/GTBas2=-1155.8971461\MP4/GTBas2=-1155
 Normal termination of Gaussian 09 at Wed Jan  4 11:59:04 2012.
