 Gaussian 09, Revision A.02,
 Gaussian 09:  AM64L-G09RevA.02 11-Jun-2009

 -----------------------
 # G4 scfcyc=500 scf=xqc
 -----------------------

 -----------
 si10-dian-s
 -----------
 Symbolic Z-matrix:
 Charge = -2 Multiplicity = 1

 SCF Done:  E(RB3LYP) =  -2894.98903108     A.U. after   13 cycles
 SCF Done:  E(RB3LYP) =  -2894.98927859     A.U. after    8 cycles
 SCF Done:  E(RB3LYP) =  -2894.98939218     A.U. after    8 cycles
 Optimization completed.
    -- Stationary point found.
 Normal termination of Gaussian 09 at Tue Dec 20 06:04:14 2011.

 ----------------------------------------------------------
 #N Geom=AllCheck Guess=TCheck SCRF=Check B3LYP/GTBas3 Freq
 ----------------------------------------------------------

 si10-dian-s
 -----------
 Redundant internal coordinates taken from checkpoint file:
 S9L-ne-d-01.chk
 Charge = -2 Multiplicity = 1

 SCF Done:  E(RB3LYP) =  -2894.98939218     A.U. after    1 cycles

  Exact polarizability: 311.453   0.000 311.453   0.000   0.000 357.778
 Approx polarizability:1007.588   0.0001007.588   0.000   0.0001110.888

                     1                      2                      3
                    E1                     E1                     E2
 Frequencies --    94.0899                94.0899               200.2564
 Red. masses --    27.9769                27.9769                27.9769
 Frc consts  --     0.1459                 0.1459                 0.6610
 IR Inten    --     2.0938                 2.0938                 0.0000

                     4                      5                      6
                    E2                     B2                     E3
 Frequencies --   200.2564               218.0673               219.1253
 Red. masses --    27.9769                27.9769                27.9769
 Frc consts  --     0.6610                 0.7838                 0.7915
 IR Inten    --     0.0000                12.5451                 0.0000

                     7                      8                      9
                    E3                     B1                     A1
 Frequencies --   219.1253               265.3153               265.5627
 Red. masses --    27.9769                27.9769                27.9769
 Frc consts  --     0.7915                 1.1603                 1.1625
 IR Inten    --     0.0000                 0.0000                 0.0000

                    10                     11                     12
                    E2                     E2                     E3
 Frequencies --   269.4362               269.4362               270.3809
 Red. masses --    27.9769                27.9769                27.9769
 Frc consts  --     1.1966                 1.1966                 1.2050
 IR Inten    --     0.0000                 0.0000                 0.0000

                    13                     14                     15
                    E3                     E1                     E1
 Frequencies --   270.3809               276.8705               276.8705
 Red. masses --    27.9769                27.9769                27.9769
 Frc consts  --     1.2050                 1.2636                 1.2636
 IR Inten    --     0.0000                 0.5487                 0.5487

                    16                     17                     18
                    E3                     E3                     E2
 Frequencies --   311.9678               311.9678               339.5930
 Red. masses --    27.9769                27.9769                27.9769
 Frc consts  --     1.6042                 1.6042                 1.9009
 IR Inten    --     0.0000                 0.0000                 0.0000

                    19                     20                     21
                    E2                     A1                     B2
 Frequencies --   339.5930               345.6636               376.8459
 Red. masses --    27.9769                27.9769                27.9769
 Frc consts  --     1.9009                 1.9695                 2.3409
 IR Inten    --     0.0000                 0.0000                 3.5534

                    22                     23                     24
                    E1                     E1                     A1
 Frequencies --   385.0845               385.0845               414.3216
 Red. masses --    27.9769                27.9769                27.9769
 Frc consts  --     2.4443                 2.4443                 2.8296
 IR Inten    --     0.0318                 0.0318                 0.0000

 - Thermochemistry -
 -------------------
 Temperature   298.150 Kelvin.  Pressure   1.00000 Atm.
 Atom     1 has atomic number 14 and mass  27.97693

 Molecular mass:   279.76928 amu.
 Principal axes and moments of inertia in atomic units:
                           1         2         3
     Eigenvalues --  2896.301523538.720033538.72003
           X            0.00000  -0.44721   0.89443
           Y            0.00000   0.89443   0.44721
           Z            1.00000   0.00000   0.00000
 This molecule is a prolate symmetric top.
 Rotational symmetry number  8.
 Warning -- assumption of classical behavior for rotation
           may cause significant error
 Rotational temperatures (Kelvin)      0.02990     0.02448     0.02448
 Rotational constants (GHZ):           0.62312     0.51000     0.51000
 Zero-point vibrational energy      39592.7 (Joules/Mol)
                                    9.46289 (Kcal/Mol)
 Warning -- explicit consideration of  24 degrees of freedom as
           vibrations may cause significant error
 Vibrational temperatures:    135.37   135.37   288.12   288.12   313.75
          (Kelvin)            315.27   315.27   381.73   382.09   387.66
                              387.66   389.02   389.02   398.35   398.35
                              448.85   448.85   488.60   488.60   497.33
                              542.20   554.05   554.05   596.12

 Zero-point correction=                           0.015080 (Hartree/Particle)
 Thermal correction to Energy=                    0.028987
 Thermal correction to Enthalpy=                  0.029931
 Thermal correction to Gibbs Free Energy=        -0.022805
 Sum of electronic and zero-point Energies=          -2894.974312
 Sum of electronic and thermal Energies=             -2894.960405
 Sum of electronic and thermal Enthalpies=           -2894.959461
 Sum of electronic and thermal Free Energies=        -2895.012198

                     E (Thermal)             CV                S
                      KCal/Mol        Cal/Mol-Kelvin    Cal/Mol-Kelvin
 Total                   18.190             46.846            110.993
 Electronic               0.000              0.000              0.000
 Translational            0.889              2.981             42.785
 Rotational               0.889              2.981             27.829
 Vibrational             16.412             40.884             40.379
 Vibration     1          0.603              1.953              3.573
 Vibration     2          0.603              1.953              3.573
 Vibration     3          0.638              1.840              2.131
 Vibration     4          0.638              1.840              2.131
 Vibration     5          0.646              1.814              1.975
 Vibration     6          0.647              1.812              1.966
 Vibration     7          0.647              1.812              1.966
 Vibration     8          0.671              1.737              1.627
 Vibration     9          0.671              1.736              1.625
 Vibration    10          0.674              1.729              1.600
 Vibration    11          0.674              1.729              1.600
 Vibration    12          0.674              1.728              1.594
 Vibration    13          0.674              1.728              1.594
 Vibration    14          0.678              1.716              1.553
 Vibration    15          0.678              1.716              1.553
 Vibration    16          0.700              1.651              1.352
 Vibration    17          0.700              1.651              1.352
 Vibration    18          0.720              1.596              1.214
 Vibration    19          0.720              1.596              1.214
 Vibration    20          0.724              1.584              1.186
 Vibration    21          0.747              1.519              1.052
 Vibration    22          0.754              1.502              1.019
 Vibration    23          0.754              1.502              1.019
 Vibration    24          0.778              1.439              0.911

 Optimization completed.
    -- Stationary point found.
 Normal termination of Gaussian 09 at Tue Dec 20 06:07:35 2011.

 -----------------------------------------------------------------
 #N Geom=AllCheck Guess=TCheck SCRF=Check CCSD(T,E4T,FrzG4)/GTBas1
 -----------------------------------------------------------------

 si10-dian-s
 -----------
 Redundant internal coordinates taken from checkpoint file:
 S9L-ne-d-01.chk
 Charge = -2 Multiplicity = 1

 SCF Done:  E(RHF) =  -2889.01106210     A.U. after   13 cycles
 E2 =    -0.1024745213D+01 EUMP2 =    -0.28900358073094D+04
 CCSD(T)= -0.28900928417D+04
 .0008201\CCSD(T)=-2890.0928417\RMSD=1.017e-09\PG=D04D [C4(Si1.Si1),4SG
 Normal termination of Gaussian 09 at Tue Dec 20 06:14:25 2011.

 ---------------------------------------------------------
 #N Geom=AllCheck Guess=TCheck SCRF=Check MP4=FrzG4/GTBas2
 ---------------------------------------------------------

 si10-dian-s
 -----------
 Redundant internal coordinates taken from checkpoint file:
 S9L-ne-d-01.chk
 Charge = -2 Multiplicity = 1

 SCF Done:  E(RHF) =  -2889.01986550     A.U. after   12 cycles
 E2 =    -0.1046817126D+01 EUMP2 =    -0.28900666826251D+04
 Normal termination of Gaussian 09 at Tue Dec 20 06:17:55 2011.

 ---------------------------------------------------------
 #N Geom=AllCheck Guess=TCheck SCRF=Check MP4=FrzG4/GTBas3
 ---------------------------------------------------------

 si10-dian-s
 -----------
 Redundant internal coordinates taken from checkpoint file:
 S9L-ne-d-01.chk
 Charge = -2 Multiplicity = 1

 SCF Done:  E(RHF) =  -2889.06992964     A.U. after   12 cycles
 E2 =    -0.1298039999D+01 EUMP2 =    -0.28903679696367D+04
 Normal termination of Gaussian 09 at Tue Dec 20 06:36:54 2011.

 -----------------------------------------------------------
 #N Geom=AllCheck Guess=TCheck SCRF=Check MP2=Full/GTLargeXP
 -----------------------------------------------------------

 si10-dian-s
 -----------
 Redundant internal coordinates taken from checkpoint file:
 S9L-ne-d-01.chk
 Charge = -2 Multiplicity = 1

 SCF Done:  E(RHF) =  -2889.26826846     A.U. after   13 cycles
 E2 =    -0.4272659669D+01 EUMP2 =    -0.28935409281257D+04
 Normal termination of Gaussian 09 at Tue Dec 20 07:07:11 2011.
 SCF Done:  E(RHF) =  -2889.32350842     A.U. after   11 cycles
 Normal termination of Gaussian 09 at Tue Dec 20 07:10:25 2011.

                         Standard orientation:
 ---------------------------------------------------------------------
 Center     Atomic      Atomic             Coordinates (Angstroms)
 Number     Number       Type             X           Y           Z
 ---------------------------------------------------------------------
      1         14           0        0.000000    0.000000    2.583770
      2         14           0        0.000000    1.903610    0.972968
      3         14           0        1.903610    0.000000    0.972968
      4         14           0       -1.903610    0.000000    0.972968
      5         14           0        0.000000   -1.903610    0.972968
      6         14           0        1.346056    1.346056   -0.972968
      7         14           0       -1.346056    1.346056   -0.972968
      8         14           0        0.000000    0.000000   -2.583770
      9         14           0        1.346056   -1.346056   -0.972968
     10         14           0       -1.346056   -1.346056   -0.972968
 ---------------------------------------------------------------------

 SCF Done:  E(RHF) =  -2889.33304169     A.U. after   10 cycles

 The electronic state is 1-A1.
 Alpha  occ. eigenvalues --  -68.54219 -68.54219 -68.52894 -68.52894 -68.52894
 Alpha  occ. eigenvalues --  -68.52894 -68.52894 -68.52894 -68.52894 -68.52894
 Alpha  occ. eigenvalues --   -5.88642  -5.88642  -5.87503  -5.87496  -5.87496
 Alpha  occ. eigenvalues --   -5.87483  -5.87483  -5.87482  -5.87480  -5.87480
 Alpha  occ. eigenvalues --   -3.98879  -3.98879  -3.98879  -3.98879  -3.98796
 Alpha  occ. eigenvalues --   -3.98796  -3.97810  -3.97810  -3.97806  -3.97806
 Alpha  occ. eigenvalues --   -3.97797  -3.97796  -3.97796  -3.97775  -3.97774
 Alpha  occ. eigenvalues --   -3.97758  -3.97758  -3.97744  -3.97744  -3.97741
 Alpha  occ. eigenvalues --   -3.97741  -3.97737  -3.97737  -3.97732  -3.97732
 Alpha  occ. eigenvalues --   -3.97719  -3.97719  -3.97711  -3.97711  -3.97707
 Alpha  occ. eigenvalues --   -0.61248  -0.49299  -0.47464  -0.47464  -0.34009
 Alpha  occ. eigenvalues --   -0.27941  -0.27941  -0.27797  -0.27797  -0.15027
 Alpha  occ. eigenvalues --   -0.14132  -0.08585  -0.08585  -0.05146  -0.05146
 Alpha  occ. eigenvalues --   -0.04942  -0.04942  -0.03288  -0.01937  -0.01937
 Alpha  occ. eigenvalues --   -0.01904
 Alpha virt. eigenvalues --    0.17877   0.17996   0.18005   0.18005   0.18532
 Alpha virt. eigenvalues --    0.18532   0.18678   0.18678   0.18714   0.19615
 Alpha virt. eigenvalues --    0.22613   0.22613   0.23075   0.23075   0.23183

 Mulliken atomic charges:
              1
     1  Si  -0.209306
     2  Si  -0.197674
     3  Si  -0.197674
     4  Si  -0.197674
     5  Si  -0.197674
     6  Si  -0.197674
     7  Si  -0.197674
     8  Si  -0.209306
     9  Si  -0.197674
    10  Si  -0.197674
 Sum of Mulliken atomic charges =  -2.00000

 Dipole moment (field-independent basis, Debye):
    X=              0.0000    Y=              0.0000    Z=              0.0000  Tot=              0.0000
 Quadrupole moment (field-independent basis, Debye-Ang):
   XX=           -186.0459   YY=           -186.0459   ZZ=           -197.0044
   XY=              0.0000   XZ=              0.0000   YZ=              0.0000

 Normal termination of Gaussian 09 at Tue Dec 20 07:28:14 2011.
