 Gaussian 09, Revision A.02,
 Gaussian 09:  AM64L-G09RevA.02 11-Jun-2009

 ---------------------------------------
 # G4 opt=(Cartesian) scfcyc=500 scf=xqc
 ---------------------------------------

 ----
 s4-c
 ----
 Symbolic Z-matrix:
 Charge =  1 Multiplicity = 2

 SCF Done:  E(UB3LYP) =  -1157.61833753     A.U. after   14 cycles
 SCF Done:  E(UB3LYP) =  -1157.61834949     A.U. after    8 cycles
 SCF Done:  E(UB3LYP) =  -1157.61835131     A.U. after    8 cycles
 Optimization completed.
    -- Stationary point found.
 Normal termination of Gaussian 09 at Wed Jan  4 12:00:05 2012.

 ----------------------------------------------------------
 #N Geom=AllCheck Guess=TCheck SCRF=Check B3LYP/GTBas3 Freq
 ----------------------------------------------------------

 ----
 No Z-matrix found on checkpoint file.
 Cartesian coordinates read from the checkpoint file:
 S9L-ne-d-01.chk
 Charge =  1 Multiplicity = 2

 SCF Done:  E(UB3LYP) =  -1157.61835131     A.U. after    1 cycles

  Exact polarizability:  64.157   0.000 160.276   0.000   0.000 122.294
 Approx polarizability: 124.487   0.000 493.357   0.000   0.000 355.616

                     1                      2                      3
                    B1                     A1                     A1
 Frequencies --    92.8623               270.0470               284.3103
 Red. masses --    27.9769                27.9769                27.9769
 Frc consts  --     0.1421                 1.2021                 1.3324
 IR Inten    --     0.2635                 0.0000                 0.5492

                     4                      5                      6
                    B2                     A1                     B2
 Frequencies --   435.6369               443.3249               453.0327
 Red. masses --    27.9769                27.9769                27.9769
 Frc consts  --     3.1282                 3.2396                 3.3831
 IR Inten    --    33.9385                 0.0000                 0.0000

 - Thermochemistry -
 -------------------
 Temperature   298.150 Kelvin.  Pressure   1.00000 Atm.
 Atom     1 has atomic number 14 and mass  27.97693

 Molecular mass:   111.90771 amu.
 Principal axes and moments of inertia in atomic units:
                           1         2         3
     Eigenvalues --   359.72615 699.303041059.02920
           X            0.00000   0.00000   1.00000
           Y            1.00000   0.00000   0.00000
           Z            0.00000   1.00000   0.00000
 This molecule is an asymmetric top.
 Rotational symmetry number  2.
 Rotational temperatures (Kelvin)      0.24078     0.12386     0.08179
 Rotational constants (GHZ):           5.01699     2.58077     1.70415
 Zero-point vibrational energy      11838.3 (Joules/Mol)
                                    2.82943 (Kcal/Mol)
 Warning -- explicit consideration of   6 degrees of freedom as
           vibrations may cause significant error
 Vibrational temperatures:    133.61   388.54   409.06   626.78   637.84
          (Kelvin)            651.81

 Zero-point correction=                           0.004509 (Hartree/Particle)
 Thermal correction to Energy=                    0.009796
 Thermal correction to Enthalpy=                  0.010740
 Thermal correction to Gibbs Free Energy=        -0.025502
 Sum of electronic and zero-point Energies=          -1157.613842
 Sum of electronic and thermal Energies=             -1157.608555
 Sum of electronic and thermal Enthalpies=           -1157.607611
 Sum of electronic and thermal Free Energies=        -1157.643853

                     E (Thermal)             CV                S
                      KCal/Mol        Cal/Mol-Kelvin    Cal/Mol-Kelvin
 Total                    6.147             15.469             76.278
 Electronic               0.000              0.000              1.377
 Translational            0.889              2.981             40.053
 Rotational               0.889              2.981             25.702
 Vibrational              4.370              9.508              9.146
 Vibration     1          0.602              1.954              3.599
 Vibration     2          0.674              1.728              1.596
 Vibration     3          0.683              1.703              1.508
 Vibration     4          0.796              1.393              0.840
 Vibration     5          0.803              1.376              0.816
 Vibration     6          0.812              1.354              0.787

 Optimization completed.
    -- Stationary point found.
 Normal termination of Gaussian 09 at Wed Jan  4 12:00:44 2012.

 -----------------------------------------------------------------
 #N Geom=AllCheck Guess=TCheck SCRF=Check CCSD(T,E4T,FrzG4)/GTBas1
 -----------------------------------------------------------------

 ----
 No Z-matrix found on checkpoint file.
 Cartesian coordinates read from the checkpoint file:
 S9L-ne-d-01.chk
 Charge =  1 Multiplicity = 2

 SCF Done:  E(UHF) =  -1155.27318857     A.U. after   14 cycles
 E2 =    -0.3434343161D+00 EUMP2 =    -0.11556166228893D+04
 CCSD(T)= -0.11556613156D+04
 -1155.629531\CCSD(T)=-1155.6613156\S2=0.808526\S2-1=0.771678\S2A=0.750
 Normal termination of Gaussian 09 at Wed Jan  4 12:00:56 2012.

 ---------------------------------------------------------
 #N Geom=AllCheck Guess=TCheck SCRF=Check MP4=FrzG4/GTBas2
 ---------------------------------------------------------

 ----
 No Z-matrix found on checkpoint file.
 Cartesian coordinates read from the checkpoint file:
 S9L-ne-d-01.chk
 Charge =  1 Multiplicity = 2

 SCF Done:  E(UHF) =  -1155.27572260     A.U. after   11 cycles
 E2 =    -0.3457201429D+00 EUMP2 =    -0.11556214427390D+04
 Normal termination of Gaussian 09 at Wed Jan  4 12:01:04 2012.

 ---------------------------------------------------------
 #N Geom=AllCheck Guess=TCheck SCRF=Check MP4=FrzG4/GTBas3
 ---------------------------------------------------------

 ----
 No Z-matrix found on checkpoint file.
 Cartesian coordinates read from the checkpoint file:
 S9L-ne-d-01.chk
 Charge =  1 Multiplicity = 2

 SCF Done:  E(UHF) =  -1155.30346769     A.U. after   13 cycles
 E2 =    -0.4081130048D+00 EUMP2 =    -0.11557115806990D+04
 Normal termination of Gaussian 09 at Wed Jan  4 12:01:33 2012.

 -----------------------------------------------------------
 #N Geom=AllCheck Guess=TCheck SCRF=Check MP2=Full/GTLargeXP
 -----------------------------------------------------------

 ----
 No Z-matrix found on checkpoint file.
 Cartesian coordinates read from the checkpoint file:
 S9L-ne-d-01.chk
 Charge =  1 Multiplicity = 2

 SCF Done:  E(UHF) =  -1155.38097954     A.U. after   11 cycles
 E2 =    -0.1587960125D+01 EUMP2 =    -0.11569689396662D+04
 Normal termination of Gaussian 09 at Wed Jan  4 12:05:43 2012.
 SCF Done:  E(UHF) =  -1155.40436017     A.U. after   10 cycles
 Normal termination of Gaussian 09 at Wed Jan  4 12:07:40 2012.

                         Standard orientation:
 ---------------------------------------------------------------------
 Center     Atomic      Atomic             Coordinates (Angstroms)
 Number     Number       Type             X           Y           Z
 ---------------------------------------------------------------------
      1         14           0        0.000000    0.000000    1.341754
      2         14           0        0.000000    1.870763   -0.000003
      3         14           0        0.000000    0.000000   -1.341749
      4         14           0        0.000000   -1.870763   -0.000003
 ---------------------------------------------------------------------

 SCF Done:  E(UHF) =  -1155.40769007     A.U. after   10 cycles

 The electronic state is 2-B2.
 Alpha  occ. eigenvalues --  -69.02665 -69.02665 -68.99201 -68.99201  -6.36997
 Alpha  occ. eigenvalues --   -6.36997  -6.33760  -6.33754  -4.47678  -4.47678
 Alpha  occ. eigenvalues --   -4.46991  -4.46991  -4.46906  -4.46905  -4.44117
 Alpha  occ. eigenvalues --   -4.44117  -4.43912  -4.43910  -4.43875  -4.43858
 Alpha  occ. eigenvalues --   -0.99562  -0.84145  -0.75385  -0.64684  -0.54486
 Alpha  occ. eigenvalues --   -0.52510  -0.49631  -0.49509
 Alpha virt. eigenvalues --   -0.21087  -0.17477  -0.16554  -0.08861  -0.08741
 Alpha virt. eigenvalues --   -0.07755  -0.07510  -0.05981  -0.05711  -0.04913
 Alpha virt. eigenvalues --   -0.04556  -0.03918  -0.03623  -0.03117  -0.02925

  Beta  occ. eigenvalues --  -69.02328 -69.02328 -68.99131 -68.99131  -6.36622
  Beta  occ. eigenvalues --   -6.36621  -6.33700  -6.33694  -4.46805  -4.46805
  Beta  occ. eigenvalues --   -4.46788  -4.46787  -4.46003  -4.46002  -4.43924
  Beta  occ. eigenvalues --   -4.43905  -4.43890  -4.43888  -4.43573  -4.43573
  Beta  occ. eigenvalues --   -0.97376  -0.79693  -0.74197  -0.54758  -0.52669
  Beta  occ. eigenvalues --   -0.49621  -0.49053
  Beta virt. eigenvalues --   -0.22432  -0.20412  -0.17492  -0.16577  -0.08491
  Beta virt. eigenvalues --   -0.07722  -0.07696  -0.07184  -0.05886  -0.05473
  Beta virt. eigenvalues --   -0.04501  -0.04359  -0.03590  -0.03454  -0.03110

 Mulliken atomic charges:
              1
     1  Si   0.166530
     2  Si   0.333473
     3  Si   0.166525
     4  Si   0.333473
 Sum of Mulliken atomic charges =   1.00000

 Dipole moment (field-independent basis, Debye):
    X=              0.0000    Y=              0.0000    Z=              0.0000  Tot=              0.0000
 Quadrupole moment (field-independent basis, Debye-Ang):
   XX=            -45.9830   YY=            -32.3584   ZZ=            -43.3327
   XY=              0.0000   XZ=              0.0000   YZ=              0.0000

 Normal termination of Gaussian 09 at Wed Jan  4 12:20:41 2012.
