 Gaussian 09, Revision A.02,
 Gaussian 09:  AM64L-G09RevA.02 11-Jun-2009

 -----------------------
 # G4 scfcyc=500 scf=xqc
 -----------------------

 ------
 si13-n
 ------
 Symbolic Z-matrix:
 Charge =  0 Multiplicity = 1

 SCF Done:  E(RB3LYP) =  -3763.38606589     A.U. after   17 cycles
 SCF Done:  E(RB3LYP) =  -3763.38626695     A.U. after   10 cycles
 SCF Done:  E(RB3LYP) =  -3763.38639343     A.U. after   11 cycles
 SCF Done:  E(RB3LYP) =  -3763.38641646     A.U. after   10 cycles
 SCF Done:  E(RB3LYP) =  -3763.38642933     A.U. after   10 cycles
 SCF Done:  E(RB3LYP) =  -3763.38643341     A.U. after   10 cycles
 SCF Done:  E(RB3LYP) =  -3763.38643429     A.U. after    9 cycles
 Optimization completed.
    -- Stationary point found.
 Normal termination of Gaussian 09 at Sat Jan  7 10:37:47 2012.

 ----------------------------------------------------------
 #N Geom=AllCheck Guess=TCheck SCRF=Check B3LYP/GTBas3 Freq
 ----------------------------------------------------------

 si13-n
 ------
 Redundant internal coordinates taken from checkpoint file:
 S9L-ne-d-01.chk
 Charge =  0 Multiplicity = 1

 SCF Done:  E(RB3LYP) =  -3763.38643429     A.U. after    1 cycles

  Exact polarizability: 341.784   0.000 342.297   0.000   0.000 486.563
 Approx polarizability:1279.156   0.0001162.140   0.000   0.0001735.525

                     1                      2                      3
                    B1                     B2                     A2
 Frequencies --    29.6517                69.6548                99.5868
 Red. masses --    27.9769                27.9769                27.9769
 Frc consts  --     0.0145                 0.0800                 0.1635
 IR Inten    --     1.1604                 0.1898                 0.0000

                     4                      5                      6
                    B2                     A1                     A2
 Frequencies --   130.3140               138.5288               147.9151
 Red. masses --    27.9769                27.9769                27.9769
 Frc consts  --     0.2799                 0.3163                 0.3606
 IR Inten    --     1.7485                 0.3731                 0.0000

                     7                      8                      9
                    B1                     B2                     A1
 Frequencies --   158.2476               172.2226               173.9208
 Red. masses --    27.9769                27.9769                27.9769
 Frc consts  --     0.4128                 0.4889                 0.4986
 IR Inten    --     0.3851                 0.0009                 0.0500

                    10                     11                     12
                    B1                     A1                     B2
 Frequencies --   184.2473               186.6307               204.6364
 Red. masses --    27.9769                27.9769                27.9769
 Frc consts  --     0.5596                 0.5741                 0.6903
 IR Inten    --     0.1113                 0.0453                 0.8880

                    13                     14                     15
                    A2                     A1                     A1
 Frequencies --   220.5980               229.2920               241.2242
 Red. masses --    27.9769                27.9769                27.9769
 Frc consts  --     0.8021                 0.8666                 0.9592
 IR Inten    --     0.0000                 0.1810                 1.0763

                    16                     17                     18
                    B1                     B1                     A2
 Frequencies --   241.4990               253.1420               265.9601
 Red. masses --    27.9769                27.9769                27.9769
 Frc consts  --     0.9613                 1.0563                 1.1660
 IR Inten    --     0.0023                 3.4608                 0.0000

                    19                     20                     21
                    B1                     A1                     B2
 Frequencies --   270.0157               280.5098               295.4427
 Red. masses --    27.9769                27.9769                27.9769
 Frc consts  --     1.2018                 1.2970                 1.4388
 IR Inten    --     1.4910                 0.1567                 3.0175

                    22                     23                     24
                    A1                     B2                     A1
 Frequencies --   310.6711               324.5357               333.3628
 Red. masses --    27.9769                27.9769                27.9769
 Frc consts  --     1.5909                 1.7361                 1.8318
 IR Inten    --     0.1357                 1.3339                 1.2257

                    25                     26                     27
                    A2                     A2                     B1
 Frequencies --   334.1287               337.9208               339.2997
 Red. masses --    27.9769                27.9769                27.9769
 Frc consts  --     1.8403                 1.8823                 1.8977
 IR Inten    --     0.0000                 0.0000                 0.0103

                    28                     29                     30
                    A1                     A1                     B1
 Frequencies --   353.3649               364.3039               390.2032
 Red. masses --    27.9769                27.9769                27.9769
 Frc consts  --     2.0582                 2.1876                 2.5098
 IR Inten    --     1.6637                 4.2473                 5.5260

                    31                     32                     33
                    B2                     B2                     A1
 Frequencies --   395.2867               427.8889               430.4107
 Red. masses --    27.9769                27.9769                27.9769
 Frc consts  --     2.5756                 3.0180                 3.0536
 IR Inten    --     3.7466                 3.3056                 1.0843

 - Thermochemistry -
 -------------------
 Temperature   298.150 Kelvin.  Pressure   1.00000 Atm.
 Atom     1 has atomic number 14 and mass  27.97693

 Molecular mass:   363.70007 amu.
 Principal axes and moments of inertia in atomic units:
                           1         2         3
     Eigenvalues --  4000.629276999.069497174.84309
           X            0.00000   1.00000   0.00000
           Y            0.00000   0.00000   1.00000
           Z            1.00000   0.00000   0.00000
 This molecule is an asymmetric top.
 Rotational symmetry number  2.
 Warning -- assumption of classical behavior for rotation
           may cause significant error
 Rotational temperatures (Kelvin)      0.02165     0.01238     0.01207
 Rotational constants (GHZ):           0.45111     0.25785     0.25154
 Zero-point vibrational energy      49852.1 (Joules/Mol)
                                   11.91493 (Kcal/Mol)
 Warning -- explicit consideration of  33 degrees of freedom as
           vibrations may cause significant error
 Vibrational temperatures:     42.66   100.22   143.28   187.49   199.31
          (Kelvin)            212.82   227.68   247.79   250.23   265.09
                              268.52   294.43   317.39   329.90   347.07
                              347.46   364.21   382.66   388.49   403.59
                              425.08   446.99   466.93   479.63   480.74
                              486.19   488.18   508.41   524.15   561.41
                              568.73   615.64   619.26

 Zero-point correction=                           0.018988 (Hartree/Particle)
 Thermal correction to Energy=                    0.038300
 Thermal correction to Enthalpy=                  0.039244
 Thermal correction to Gibbs Free Energy=        -0.027585
 Sum of electronic and zero-point Energies=          -3763.367447
 Sum of electronic and thermal Energies=             -3763.348134
 Sum of electronic and thermal Enthalpies=           -3763.347190
 Sum of electronic and thermal Free Energies=        -3763.414019

                     E (Thermal)             CV                S
                      KCal/Mol        Cal/Mol-Kelvin    Cal/Mol-Kelvin
 Total                   24.034             63.169            140.655
 Electronic               0.000              0.000              0.000
 Translational            0.889              2.981             43.567
 Rotational               0.889              2.981             32.285
 Vibrational             22.256             57.207             64.803
 Vibration     1          0.593              1.984              5.853
 Vibration     2          0.598              1.969              4.163
 Vibration     3          0.604              1.949              3.462
 Vibration     4          0.612              1.923              2.941
 Vibration     5          0.614              1.915              2.824
 Vibration     6          0.617              1.905              2.699
 Vibration     7          0.621              1.893              2.571
 Vibration     8          0.626              1.877              2.411
 Vibration     9          0.627              1.875              2.393
 Vibration    10          0.631              1.861              2.285
 Vibration    11          0.632              1.858              2.261
 Vibration    12          0.640              1.833              2.091
 Vibration    13          0.647              1.810              1.954
 Vibration    14          0.652              1.796              1.884
 Vibration    15          0.658              1.777              1.794
 Vibration    16          0.658              1.777              1.792
 Vibration    17          0.664              1.757              1.709
 Vibration    18          0.672              1.736              1.622
 Vibration    19          0.674              1.728              1.596
 Vibration    20          0.680              1.710              1.531
 Vibration    21          0.690              1.682              1.443
 Vibration    22          0.700              1.653              1.359
 Vibration    23          0.709              1.626              1.287
 Vibration    24          0.715              1.609              1.244
 Vibration    25          0.716              1.607              1.240
 Vibration    26          0.718              1.600              1.222
 Vibration    27          0.719              1.597              1.215
 Vibration    28          0.730              1.568              1.151
 Vibration    29          0.738              1.546              1.104
 Vibration    30          0.758              1.491              0.999
 Vibration    31          0.762              1.480              0.980
 Vibration    32          0.789              1.410              0.866
 Vibration    33          0.792              1.404              0.857

 Optimization completed.
    -- Stationary point found.
 Normal termination of Gaussian 09 at Sat Jan  7 10:50:45 2012.

 -----------------------------------------------------------------
 #N Geom=AllCheck Guess=TCheck SCRF=Check CCSD(T,E4T,FrzG4)/GTBas1
 -----------------------------------------------------------------

 si13-n
 ------
 Redundant internal coordinates taken from checkpoint file:
 S9L-ne-d-01.chk
 Charge =  0 Multiplicity = 1

 SCF Done:  E(RHF) =  -3755.62240630     A.U. after   17 cycles
 E2 =    -0.1319472449D+01 EUMP2 =    -0.37569418787495D+04
 CCSD(T)= -0.37570251268D+04
 P4SDQ=-3756.9458383\CCSD=-3756.8977721\CCSD(T)=-3757.0251268\RMSD=6.44
 Normal termination of Gaussian 09 at Sat Jan  7 11:23:22 2012.

 ---------------------------------------------------------
 #N Geom=AllCheck Guess=TCheck SCRF=Check MP4=FrzG4/GTBas2
 ---------------------------------------------------------

 si13-n
 ------
 Redundant internal coordinates taken from checkpoint file:
 S9L-ne-d-01.chk
 Charge =  0 Multiplicity = 1

 SCF Done:  E(RHF) =  -3755.63493095     A.U. after   16 cycles
 E2 =    -0.1336392728D+01 EUMP2 =    -0.37569713236799D+04
 Normal termination of Gaussian 09 at Sat Jan  7 11:38:03 2012.

 ---------------------------------------------------------
 #N Geom=AllCheck Guess=TCheck SCRF=Check MP4=FrzG4/GTBas3
 ---------------------------------------------------------

 si13-n
 ------
 Redundant internal coordinates taken from checkpoint file:
 S9L-ne-d-01.chk
 Charge =  0 Multiplicity = 1

 SCF Done:  E(RHF) =  -3755.71820849     A.U. after   16 cycles
 E2 =    -0.1647101998D+01 EUMP2 =    -0.37573653104852D+04
 Normal termination of Gaussian 09 at Sat Jan  7 12:54:07 2012.

 -----------------------------------------------------------
 #N Geom=AllCheck Guess=TCheck SCRF=Check MP2=Full/GTLargeXP
 -----------------------------------------------------------

 si13-n
 ------
 Redundant internal coordinates taken from checkpoint file:
 S9L-ne-d-01.chk
 Charge =  0 Multiplicity = 1

 SCF Done:  E(RHF) =  -3755.96814324     A.U. after   15 cycles
 E2 =    -0.5507915511D+01 EUMP2 =    -0.37614760587530D+04
 Normal termination of Gaussian 09 at Sat Jan  7 14:49:51 2012.
 SCF Done:  E(RHF) =  -3756.03809317     A.U. after   12 cycles
 Normal termination of Gaussian 09 at Sat Jan  7 15:13:18 2012.

                         Standard orientation:
 ---------------------------------------------------------------------
 Center     Atomic      Atomic             Coordinates (Angstroms)
 Number     Number       Type             X           Y           Z
 ---------------------------------------------------------------------
      1         14           0        0.000000    2.036829   -2.560398
      2         14           0        0.000000   -1.313848   -0.265659
      3         14           0        1.302914    0.000000   -2.525868
      4         14           0       -1.302914    0.000000   -2.525868
      5         14           0        0.000000    1.313848   -0.265659
      6         14           0        2.150622    0.000000   -0.033547
      7         14           0        0.000000   -2.036829   -2.560398
      8         14           0       -1.436649    1.359435    1.862966
      9         14           0        1.436649    1.359435    1.862966
     10         14           0        0.000000    0.000000    3.319080
     11         14           0       -2.150622    0.000000   -0.033547
     12         14           0       -1.436649   -1.359435    1.862966
     13         14           0        1.436649   -1.359435    1.862966
 ---------------------------------------------------------------------

 SCF Done:  E(RHF) =  -3756.05093073     A.U. after   14 cycles

 The electronic state is 1-A1.
 Alpha  occ. eigenvalues --  -68.82796 -68.82796 -68.81459 -68.81459 -68.81274
 Alpha  occ. eigenvalues --  -68.81274 -68.81253 -68.81253 -68.81253 -68.81253
 Alpha  occ. eigenvalues --  -68.81221 -68.79647 -68.79647  -6.17337  -6.17332
 Alpha  occ. eigenvalues --   -6.16118  -6.16117  -6.15815  -6.15808  -6.15762
 Alpha  occ. eigenvalues --   -6.15746  -6.15744  -6.15742  -6.15741  -6.14137
 Alpha  occ. eigenvalues --   -6.14137  -4.27813  -4.27794  -4.27793  -4.27791
 Alpha  occ. eigenvalues --   -4.27678  -4.27674  -4.26326  -4.26325  -4.26317
 Alpha  occ. eigenvalues --   -4.26317  -4.26276  -4.26276  -4.26072  -4.26070
 Alpha  occ. eigenvalues --   -4.26060  -4.26037  -4.25933  -4.25931  -4.25929
 Alpha  occ. eigenvalues --   -4.25925  -4.25924  -4.25918  -4.25914  -4.25905
 Alpha  occ. eigenvalues --   -4.25899  -4.25886  -4.25884  -4.25883  -4.25882
 Alpha  occ. eigenvalues --   -4.25865  -4.25862  -4.25858  -4.25846  -4.24313
 Alpha  occ. eigenvalues --   -4.24313  -4.24306  -4.24306  -4.24277  -4.24277
 Alpha  occ. eigenvalues --   -0.90855  -0.82501  -0.77631  -0.73720  -0.71454
 Alpha  occ. eigenvalues --   -0.66206  -0.63009  -0.57189  -0.55527  -0.52655
 Alpha  occ. eigenvalues --   -0.51113  -0.49757  -0.47570  -0.40538  -0.38541
 Alpha  occ. eigenvalues --   -0.37579  -0.34920  -0.34781  -0.33204  -0.32649
 Alpha  occ. eigenvalues --   -0.31825  -0.30387  -0.29986  -0.29631  -0.29034
 Alpha  occ. eigenvalues --   -0.25523
 Alpha virt. eigenvalues --   -0.05617  -0.01682  -0.01198  -0.00612   0.02045
 Alpha virt. eigenvalues --    0.02058   0.02272   0.02765   0.02800   0.02961
 Alpha virt. eigenvalues --    0.03435   0.03653   0.03784   0.03853   0.04208

 Mulliken atomic charges:
              1
     1  Si  -0.105120
     2  Si   0.308644
     3  Si   0.054851
     4  Si   0.054851
     5  Si   0.308644
     6  Si  -0.071542
     7  Si  -0.105120
     8  Si  -0.090396
     9  Si  -0.090396
    10  Si  -0.012082
    11  Si  -0.071542
    12  Si  -0.090396
    13  Si  -0.090396
 Sum of Mulliken atomic charges =   0.00000

 Dipole moment (field-independent basis, Debye):
    X=              0.0000    Y=              0.0000    Z=             -0.5772  Tot=              0.5772
 Quadrupole moment (field-independent basis, Debye-Ang):
   XX=           -175.5449   YY=           -180.7674   ZZ=           -183.3909
   XY=              0.0000   XZ=              0.0000   YZ=              0.0000

 Normal termination of Gaussian 09 at Sat Jan  7 17:56:57 2012.
