 Gaussian 09, Revision A.02,
 Gaussian 09:  AM64L-G09RevA.02 11-Jun-2009

 -----------------------
 # G4 scfcyc=500 scf=xqc
 -----------------------

 -----
 si8-n
 -----
 Symbolic Z-matrix:
 Charge =  0 Multiplicity = 1

 SCF Done:  E(RB3LYP) =  -2315.90839526     A.U. after   14 cycles
 SCF Done:  E(RB3LYP) =  -2315.90847752     A.U. after   10 cycles
 SCF Done:  E(RB3LYP) =  -2315.90852152     A.U. after   10 cycles
 Optimization completed.
    -- Stationary point found.
 Normal termination of Gaussian 09 at Wed Dec 21 04:03:46 2011.

 ----------------------------------------------------------
 #N Geom=AllCheck Guess=TCheck SCRF=Check B3LYP/GTBas3 Freq
 ----------------------------------------------------------

 si8-n
 -----
 Redundant internal coordinates taken from checkpoint file:
 S9L-ne-d-01.chk
 Charge =  0 Multiplicity = 1

 SCF Done:  E(RB3LYP) =  -2315.90852152     A.U. after    1 cycles

  Exact polarizability: 186.717 -12.788 319.261   0.000   0.000 217.646
 Approx polarizability: 539.837 -24.6371005.824   0.000   0.000 669.692

                     1                      2                      3
                    AU                     AG                     BU
 Frequencies --    42.3413                80.6873               148.8622
 Red. masses --    27.9769                27.9769                27.9769
 Frc consts  --     0.0296                 0.1073                 0.3653
 IR Inten    --     0.4355                 0.0000                 0.3203

                     4                      5                      6
                    AU                     AG                     BU
 Frequencies --   158.1108               226.3584               227.9930
 Red. masses --    27.9769                27.9769                27.9769
 Frc consts  --     0.4121                 0.8446                 0.8568
 IR Inten    --     0.1623                 0.0000                 0.2099

                     7                      8                      9
                    BG                     AU                     AG
 Frequencies --   245.5893               274.7324               282.8120
 Red. masses --    27.9769                27.9769                27.9769
 Frc consts  --     0.9942                 1.2441                 1.3184
 IR Inten    --     0.0000                 0.0252                 0.0000

                    10                     11                     12
                    BU                     BG                     AG
 Frequencies --   287.8398               290.3665               305.6045
 Red. masses --    27.9769                27.9769                27.9769
 Frc consts  --     1.3657                 1.3898                 1.5395
 IR Inten    --     2.2510                 0.0000                 0.0000

                    13                     14                     15
                    BG                     BU                     AU
 Frequencies --   321.8481               347.3384               374.9212
 Red. masses --    27.9769                27.9769                27.9769
 Frc consts  --     1.7075                 1.9886                 2.3170
 IR Inten    --     0.0000                 2.3223                 7.1195

                    16                     17                     18
                    AG                     AG                     BU
 Frequencies --   380.1485               503.9193               508.0267
 Red. masses --    27.9769                27.9769                27.9769
 Frc consts  --     2.3821                 4.1857                 4.2543
 IR Inten    --     0.0000                 0.0000                10.0888

 - Thermochemistry -
 -------------------
 Temperature   298.150 Kelvin.  Pressure   1.00000 Atm.
 Atom     1 has atomic number 14 and mass  27.97693

 Molecular mass:   223.81543 amu.
 Principal axes and moments of inertia in atomic units:
                           1         2         3
     Eigenvalues --  1412.526812821.074673094.91292
           X           -0.10810   0.00000   0.99414
           Y            0.99414   0.00000   0.10810
           Z            0.00000   1.00000   0.00000
 This molecule is an asymmetric top.
 Rotational symmetry number  2.
 Warning -- assumption of classical behavior for rotation
           may cause significant error
 Rotational temperatures (Kelvin)      0.06132     0.03070     0.02799
 Rotational constants (GHZ):           1.27767     0.63974     0.58313
 Zero-point vibrational energy      29951.5 (Joules/Mol)
                                    7.15858 (Kcal/Mol)
 Warning -- explicit consideration of  18 degrees of freedom as
           vibrations may cause significant error
 Vibrational temperatures:     60.92   116.09   214.18   227.49   325.68
          (Kelvin)            328.03   353.35   395.28   406.90   414.14
                              417.77   439.70   463.07   499.74   539.43
                              546.95   725.03   730.94

 Zero-point correction=                           0.011408 (Hartree/Particle)
 Thermal correction to Energy=                    0.022707
 Thermal correction to Enthalpy=                  0.023651
 Thermal correction to Gibbs Free Energy=        -0.026127
 Sum of electronic and zero-point Energies=          -2315.897114
 Sum of electronic and thermal Energies=             -2315.885815
 Sum of electronic and thermal Enthalpies=           -2315.884871
 Sum of electronic and thermal Free Energies=        -2315.934649

                     E (Thermal)             CV                S
                      KCal/Mol        Cal/Mol-Kelvin    Cal/Mol-Kelvin
 Total                   14.249             36.269            104.767
 Electronic               0.000              0.000              0.000
 Translational            0.889              2.981             42.120
 Rotational               0.889              2.981             29.512
 Vibrational             12.471             30.308             33.135
 Vibration     1          0.595              1.980              5.146
 Vibration     2          0.600              1.962              3.874
 Vibration     3          0.618              1.904              2.687
 Vibration     4          0.621              1.894              2.572
 Vibration     5          0.650              1.801              1.908
 Vibration     6          0.651              1.798              1.895
 Vibration     7          0.660              1.770              1.762
 Vibration     8          0.677              1.720              1.566
 Vibration     9          0.682              1.705              1.517
 Vibration    10          0.685              1.696              1.487
 Vibration    11          0.686              1.692              1.472
 Vibration    12          0.696              1.663              1.386
 Vibration    13          0.707              1.632              1.301
 Vibration    14          0.725              1.581              1.178
 Vibration    15          0.746              1.524              1.060
 Vibration    16          0.750              1.512              1.039
 Vibration    17          0.859              1.241              0.648
 Vibration    18          0.863              1.232              0.638

 Normal termination of Gaussian 09 at Wed Dec 21 04:07:21 2011.

 -----------------------------------------------------------------
 #N Geom=AllCheck Guess=TCheck SCRF=Check CCSD(T,E4T,FrzG4)/GTBas1
 -----------------------------------------------------------------

 si8-n
 -----
 Redundant internal coordinates taken from checkpoint file:
 S9L-ne-d-01.chk
 Charge =  0 Multiplicity = 1

 SCF Done:  E(RHF) =  -2311.14647152     A.U. after   15 cycles
 E2 =    -0.7684895210D+00 EUMP2 =    -0.23119149610392D+04
 CCSD(T)= -0.23119807237D+04
 SDTQ=-2312.0132351\MP4SDQ=-2311.9233095\CCSD=-2311.9114409\CCSD(T)=-23
 Normal termination of Gaussian 09 at Wed Dec 21 04:11:00 2011.

 ---------------------------------------------------------
 #N Geom=AllCheck Guess=TCheck SCRF=Check MP4=FrzG4/GTBas2
 ---------------------------------------------------------

 si8-n
 -----
 Redundant internal coordinates taken from checkpoint file:
 S9L-ne-d-01.chk
 Charge =  0 Multiplicity = 1

 SCF Done:  E(RHF) =  -2311.15142572     A.U. after   12 cycles
 E2 =    -0.7761136476D+00 EUMP2 =    -0.23119275393628D+04
 Normal termination of Gaussian 09 at Wed Dec 21 04:13:04 2011.

 ---------------------------------------------------------
 #N Geom=AllCheck Guess=TCheck SCRF=Check MP4=FrzG4/GTBas3
 ---------------------------------------------------------

 si8-n
 -----
 Redundant internal coordinates taken from checkpoint file:
 S9L-ne-d-01.chk
 Charge =  0 Multiplicity = 1

 SCF Done:  E(RHF) =  -2311.21126839     A.U. after   15 cycles
 E2 =    -0.9564843339D+00 EUMP2 =    -0.23121677527288D+04
 Normal termination of Gaussian 09 at Wed Dec 21 04:22:22 2011.

 -----------------------------------------------------------
 #N Geom=AllCheck Guess=TCheck SCRF=Check MP2=Full/GTLargeXP
 -----------------------------------------------------------

 si8-n
 -----
 Redundant internal coordinates taken from checkpoint file:
 S9L-ne-d-01.chk
 Charge =  0 Multiplicity = 1

 SCF Done:  E(RHF) =  -2311.36582368     A.U. after   12 cycles
 E2 =    -0.3328764541D+01 EUMP2 =    -0.23146945882232D+04
 Normal termination of Gaussian 09 at Wed Dec 21 04:46:35 2011.
 SCF Done:  E(RHF) =  -2311.40871230     A.U. after   11 cycles
 Normal termination of Gaussian 09 at Wed Dec 21 04:56:24 2011.

                         Standard orientation:
 ---------------------------------------------------------------------
 Center     Atomic      Atomic             Coordinates (Angstroms)
 Number     Number       Type             X           Y           Z
 ---------------------------------------------------------------------
      1         14           0        0.661751    1.257288    1.452553
      2         14           0       -0.661751   -1.257288    1.452553
      3         14           0        0.661751    1.257288   -1.452553
      4         14           0       -0.661751   -1.257288   -1.452553
      5         14           0       -1.278285    0.575148    0.000000
      6         14           0        1.278285   -0.575148    0.000000
      7         14           0       -0.661751    2.770982    0.000000
      8         14           0        0.661751   -2.770982    0.000000
 ---------------------------------------------------------------------

 SCF Done:  E(RHF) =  -2311.41665947     A.U. after   10 cycles

 The electronic state is 1-AG.
 Alpha  occ. eigenvalues --  -68.81307 -68.81307 -68.81307 -68.81307 -68.81150
 Alpha  occ. eigenvalues --  -68.81150 -68.79293 -68.79293  -6.15893  -6.15889
 Alpha  occ. eigenvalues --   -6.15736  -6.15735  -6.15735  -6.15731  -6.13810
 Alpha  occ. eigenvalues --   -6.13810  -4.26339  -4.26328  -4.26269  -4.26267
 Alpha  occ. eigenvalues --   -4.26190  -4.26189  -4.25912  -4.25911  -4.25910
 Alpha  occ. eigenvalues --   -4.25907  -4.25905  -4.25902  -4.25899  -4.25898
 Alpha  occ. eigenvalues --   -4.25840  -4.25840  -4.25839  -4.25837  -4.23965
 Alpha  occ. eigenvalues --   -4.23965  -4.23951  -4.23951  -4.23936  -4.23936
 Alpha  occ. eigenvalues --   -0.89591  -0.77135  -0.66860  -0.65158  -0.61281
 Alpha  occ. eigenvalues --   -0.52861  -0.48319  -0.41948  -0.38574  -0.38271
 Alpha  occ. eigenvalues --   -0.34561  -0.33341  -0.33098  -0.30029  -0.28913
 Alpha  occ. eigenvalues --   -0.26997
 Alpha virt. eigenvalues --   -0.01373   0.00030   0.01022   0.01648   0.02485
 Alpha virt. eigenvalues --    0.02806   0.02963   0.03173   0.03394   0.04182
 Alpha virt. eigenvalues --    0.04312   0.05044   0.05148   0.05421   0.05593

 Mulliken atomic charges:
              1
     1  Si  -0.035208
     2  Si  -0.035208
     3  Si  -0.035208
     4  Si  -0.035208
     5  Si   0.150595
     6  Si   0.150595
     7  Si  -0.080179
     8  Si  -0.080179
 Sum of Mulliken atomic charges =   0.00000

 Dipole moment (field-independent basis, Debye):
    X=              0.0000    Y=              0.0000    Z=              0.0000  Tot=              0.0000
 Quadrupole moment (field-independent basis, Debye-Ang):
   XX=           -105.0608   YY=           -114.1732   ZZ=           -110.1380
   XY=              1.3208   XZ=              0.0000   YZ=              0.0000

 Normal termination of Gaussian 09 at Wed Dec 21 05:55:05 2011.
