 Gaussian 09, Revision A.02,
 Gaussian 09:  AM64L-G09RevA.02 11-Jun-2009

 -----------------------
 # G4 scfcyc=500 scf=xqc
 -----------------------

 ------
 si12-n
 ------
 Symbolic Z-matrix:
 Charge =  1 Multiplicity = 2

 SCF Done:  E(UB3LYP) =  -3473.65998805     A.U. after   22 cycles
 SCF Done:  E(UB3LYP) =  -3473.66017966     A.U. after   14 cycles
 SCF Done:  E(UB3LYP) =  -3473.66031648     A.U. after   16 cycles
 SCF Done:  E(UB3LYP) =  -3473.66032781     A.U. after   12 cycles
 SCF Done:  E(UB3LYP) =  -3473.66033463     A.U. after   12 cycles
 SCF Done:  E(UB3LYP) =  -3473.66033899     A.U. after   13 cycles
 SCF Done:  E(UB3LYP) =  -3473.66033950     A.U. after   11 cycles
 Optimization completed.
    -- Stationary point found.
 Normal termination of Gaussian 09 at Sun Dec 18 11:49:54 2011.

 ----------------------------------------------------------
 #N Geom=AllCheck Guess=TCheck SCRF=Check B3LYP/GTBas3 Freq
 ----------------------------------------------------------

 si12-n
 ------
 Redundant internal coordinates taken from checkpoint file:
 S9L-ne-d-01.chk
 Charge =  1 Multiplicity = 2

 SCF Done:  E(UB3LYP) =  -3473.66033950     A.U. after    1 cycles

  Exact polarizability: 298.402  -0.729 270.586   0.000   0.000 456.722
 Approx polarizability:1086.622   2.336 949.497   0.000   0.0001551.527

                     1                      2                      3
                    A"                     A'                     A'
 Frequencies --    91.8674               102.6212               128.9531
 Red. masses --    27.9769                27.9769                27.9769
 Frc consts  --     0.1391                 0.1736                 0.2741
 IR Inten    --     0.6353                 0.0753                 0.0338

                     4                      5                      6
                    A"                     A"                     A'
 Frequencies --   146.8790               154.5099               158.7630
 Red. masses --    27.9769                27.9769                27.9769
 Frc consts  --     0.3556                 0.3935                 0.4155
 IR Inten    --     0.0714                 0.4501                 0.0787

                     7                      8                      9
                    A'                     A'                     A"
 Frequencies --   171.0080               189.2579               191.2633
 Red. masses --    27.9769                27.9769                27.9769
 Frc consts  --     0.4820                 0.5904                 0.6030
 IR Inten    --     0.9823                 0.1238                 0.0193

                    10                     11                     12
                    A'                     A'                     A"
 Frequencies --   208.5165               213.1719               218.3221
 Red. masses --    27.9769                27.9769                27.9769
 Frc consts  --     0.7167                 0.7490                 0.7857
 IR Inten    --     0.2603                 1.0226                 0.6704

                    13                     14                     15
                    A'                     A"                     A"
 Frequencies --   231.7667               237.6664               251.2027
 Red. masses --    27.9769                27.9769                27.9769
 Frc consts  --     0.8854                 0.9311                 1.0402
 IR Inten    --     0.1278                 0.0003                 1.0134

                    16                     17                     18
                    A'                     A'                     A"
 Frequencies --   261.1916               263.9269               275.6552
 Red. masses --    27.9769                27.9769                27.9769
 Frc consts  --     1.1245                 1.1482                 1.2525
 IR Inten    --     0.0024                 0.3474                 0.0299

                    19                     20                     21
                    A'                     A'                     A"
 Frequencies --   296.0418               309.1323               317.9640
 Red. masses --    27.9769                27.9769                27.9769
 Frc consts  --     1.4446                 1.5752                 1.6665
 IR Inten    --     0.8908                 0.9168                 3.9763

                    22                     23                     24
                    A'                     A"                     A'
 Frequencies --   324.2390               341.6466               354.1317
 Red. masses --    27.9769                27.9769                27.9769
 Frc consts  --     1.7329                 1.9240                 2.0672
 IR Inten    --     0.6185                 9.9774                 0.9881

                    25                     26                     27
                    A"                     A'                     A'
 Frequencies --   368.5824               375.7289               408.5590
 Red. masses --    27.9769                27.9769                27.9769
 Frc consts  --     2.2393                 2.3270                 2.7514
 IR Inten    --     0.0015                 5.9453                 6.0087

                    28                     29                     30
                    A"                     A"                     A'
 Frequencies --   417.9772               477.7810               486.9576
 Red. masses --    27.9769                27.9769                27.9769
 Frc consts  --     2.8798                 3.7628                 3.9087
 IR Inten    --     1.4619                33.6875                 6.7554

 - Thermochemistry -
 -------------------
 Temperature   298.150 Kelvin.  Pressure   1.00000 Atm.
 Atom     1 has atomic number 14 and mass  27.97693

 Molecular mass:   335.72314 amu.
 Principal axes and moments of inertia in atomic units:
                           1         2         3
     Eigenvalues --  3202.281486134.865106558.43275
           X            0.00000   1.00000   0.00000
           Y            0.00000   0.00000   1.00000
           Z            1.00000   0.00000   0.00000
 This molecule is an asymmetric top.
 Rotational symmetry number  1.
 Warning -- assumption of classical behavior for rotation
           may cause significant error
 Rotational temperatures (Kelvin)      0.02705     0.01412     0.01321
 Rotational constants (GHZ):           0.56358     0.29418     0.27518
 Zero-point vibrational energy      47702.8 (Joules/Mol)
                                   11.40124 (Kcal/Mol)
 Warning -- explicit consideration of  30 degrees of freedom as
           vibrations may cause significant error
 Vibrational temperatures:    132.18   147.65   185.53   211.33   222.30
          (Kelvin)            228.42   246.04   272.30   275.18   300.01
                              306.71   314.12   333.46   341.95   361.42
                              375.80   379.73   396.61   425.94   444.77
                              457.48   466.51   491.55   509.52   530.31
                              540.59   587.82   601.38   687.42   700.62

 Zero-point correction=                           0.018169 (Hartree/Particle)
 Thermal correction to Energy=                    0.035440
 Thermal correction to Enthalpy=                  0.036384
 Thermal correction to Gibbs Free Energy=        -0.026396
 Sum of electronic and zero-point Energies=          -3473.642170
 Sum of electronic and thermal Energies=             -3473.624900
 Sum of electronic and thermal Enthalpies=           -3473.623956
 Sum of electronic and thermal Free Energies=        -3473.686735

                     E (Thermal)             CV                S
                      KCal/Mol        Cal/Mol-Kelvin    Cal/Mol-Kelvin
 Total                   22.239             57.351            132.131
 Electronic               0.000              0.000              1.377
 Translational            0.889              2.981             43.328
 Rotational               0.889              2.981             33.221
 Vibrational             20.461             51.389             54.204
 Vibration     1          0.602              1.955              3.620
 Vibration     2          0.605              1.947              3.404
 Vibration     3          0.611              1.924              2.962
 Vibration     4          0.617              1.906              2.712
 Vibration     5          0.620              1.898              2.616
 Vibration     6          0.621              1.893              2.564
 Vibration     7          0.626              1.878              2.424
 Vibration     8          0.633              1.855              2.235
 Vibration     9          0.634              1.852              2.216
 Vibration    10          0.642              1.828              2.057
 Vibration    11          0.644              1.821              2.016
 Vibration    12          0.646              1.813              1.973
 Vibration    13          0.653              1.792              1.865
 Vibration    14          0.656              1.783              1.820
 Vibration    15          0.663              1.761              1.722
 Vibration    16          0.669              1.744              1.654
 Vibration    17          0.670              1.739              1.636
 Vibration    18          0.677              1.718              1.560
 Vibration    19          0.690              1.681              1.439
 Vibration    20          0.698              1.656              1.367
 Vibration    21          0.704              1.639              1.321
 Vibration    22          0.709              1.627              1.289
 Vibration    23          0.721              1.592              1.204
 Vibration    24          0.730              1.567              1.148
 Vibration    25          0.741              1.537              1.086
 Vibration    26          0.747              1.522              1.056
 Vibration    27          0.773              1.452              0.932
 Vibration    28          0.781              1.431              0.899
 Vibration    29          0.834              1.299              0.716
 Vibration    30          0.843              1.279              0.692

 Optimization completed.
    -- Stationary point found.
 Normal termination of Gaussian 09 at Sun Dec 18 12:09:19 2011.

 -----------------------------------------------------------------
 #N Geom=AllCheck Guess=TCheck SCRF=Check CCSD(T,E4T,FrzG4)/GTBas1
 -----------------------------------------------------------------

 si12-n
 ------
 Redundant internal coordinates taken from checkpoint file:
 S9L-ne-d-01.chk
 Charge =  1 Multiplicity = 2

 SCF Done:  E(UHF) =  -3466.53096876     A.U. after   31 cycles
 E2 =    -0.1170314971D+01 EUMP2 =    -0.34677012837349D+04
 CCSD(T)= -0.34677871694D+04
 7.6322151\MP4SDQ=-3467.7019218\CCSD=-3467.6737813\CCSD(T)=-3467.787169
 Normal termination of Gaussian 09 at Sun Dec 18 13:36:49 2011.

 ---------------------------------------------------------
 #N Geom=AllCheck Guess=TCheck SCRF=Check MP4=FrzG4/GTBas2
 ---------------------------------------------------------

 si12-n
 ------
 Redundant internal coordinates taken from checkpoint file:
 S9L-ne-d-01.chk
 Charge =  1 Multiplicity = 2

 SCF Done:  E(UHF) =  -3466.54238874     A.U. after   27 cycles
 E2 =    -0.1183173279D+01 EUMP2 =    -0.34677255620226D+04
 Normal termination of Gaussian 09 at Sun Dec 18 14:17:36 2011.

 ---------------------------------------------------------
 #N Geom=AllCheck Guess=TCheck SCRF=Check MP4=FrzG4/GTBas3
 ---------------------------------------------------------

 si12-n
 ------
 Redundant internal coordinates taken from checkpoint file:
 S9L-ne-d-01.chk
 Charge =  1 Multiplicity = 2

 SCF Done:  E(UHF) =  -3466.62020409     A.U. after   26 cycles
 E2 =    -0.1463041929D+01 EUMP2 =    -0.34680832460233D+04
 Normal termination of Gaussian 09 at Sun Dec 18 17:55:44 2011.

 -----------------------------------------------------------
 #N Geom=AllCheck Guess=TCheck SCRF=Check MP2=Full/GTLargeXP
 -----------------------------------------------------------

 si12-n
 ------
 Redundant internal coordinates taken from checkpoint file:
 S9L-ne-d-01.chk
 Charge =  1 Multiplicity = 2

 SCF Done:  E(UHF) =  -3466.85165088     A.U. after   25 cycles
 E2 =    -0.5021703172D+01 EUMP2 =    -0.34718733540487D+04
 Normal termination of Gaussian 09 at Mon Dec 19 00:16:18 2011.
 SCF Done:  E(UHF) =  -3466.91589094     A.U. after   20 cycles
 Normal termination of Gaussian 09 at Mon Dec 19 01:24:13 2011.

                         Standard orientation:
 ---------------------------------------------------------------------
 Center     Atomic      Atomic             Coordinates (Angstroms)
 Number     Number       Type             X           Y           Z
 ---------------------------------------------------------------------
      1         14           0       -0.082969   -0.005477    3.705193
      2         14           0        0.304804    1.631300    1.886294
      3         14           0        0.681979   -0.928161    1.715023
      4         14           0       -1.779049   -0.278136    1.876609
      5         14           0       -1.118798   -1.662097    0.000000
      6         14           0        1.677961    1.003287    0.000000
      7         14           0       -1.123268    1.118395    0.000000
      8         14           0        0.304804    1.631300   -1.886294
      9         14           0        0.681979   -0.928161   -1.715023
     10         14           0       -1.779049   -0.278136   -1.876609
     11         14           0       -0.082969   -0.005477   -3.705193
     12         14           0        2.314574   -1.298638    0.000000
 ---------------------------------------------------------------------

 SCF Done:  E(UHF) =  -3466.92799381     A.U. after   30 cycles

 The electronic state is 2-A'.
 Alpha  occ. eigenvalues --  -68.96501 -68.96302 -68.95134 -68.95134 -68.94787
 Alpha  occ. eigenvalues --  -68.94787 -68.94580 -68.94580 -68.93998 -68.93897
 Alpha  occ. eigenvalues --  -68.93512 -68.93512  -6.30918  -6.30779  -6.29635
 Alpha  occ. eigenvalues --   -6.29635  -6.29428  -6.29428  -6.29118  -6.29118
 Alpha  occ. eigenvalues --   -6.28517  -6.28367  -6.27877  -6.27877  -4.41715
 Alpha  occ. eigenvalues --   -4.41300  -4.41093  -4.41080  -4.40969  -4.40948
 Alpha  occ. eigenvalues --   -4.39951  -4.39951  -4.39855  -4.39855  -4.39825
 Alpha  occ. eigenvalues --   -4.39825  -4.39754  -4.39754  -4.39736  -4.39736
 Alpha  occ. eigenvalues --   -4.39727  -4.39726  -4.39688  -4.39688  -4.39318
 Alpha  occ. eigenvalues --   -4.39318  -4.39207  -4.39207  -4.38935  -4.38819
 Alpha  occ. eigenvalues --   -4.38803  -4.38685  -4.38487  -4.38472  -4.37963
 Alpha  occ. eigenvalues --   -4.37963  -4.37949  -4.37949  -4.37921  -4.37921
 Alpha  occ. eigenvalues --   -1.03934  -0.95996  -0.89869  -0.87130  -0.83745
 Alpha  occ. eigenvalues --   -0.75434  -0.73022  -0.70905  -0.69863  -0.66106
 Alpha  occ. eigenvalues --   -0.61861  -0.55404  -0.54223  -0.51545  -0.50858
 Alpha  occ. eigenvalues --   -0.50259  -0.47751  -0.46558  -0.45532  -0.44318
 Alpha  occ. eigenvalues --   -0.43721  -0.43670  -0.41521  -0.41137
 Alpha virt. eigenvalues --   -0.15187  -0.13381  -0.12891  -0.11979  -0.11012
 Alpha virt. eigenvalues --   -0.09279  -0.09008  -0.08272  -0.07949  -0.07511
 Alpha virt. eigenvalues --   -0.06414  -0.05682  -0.05157  -0.04941  -0.04684

  Beta  occ. eigenvalues --  -68.96402 -68.96122 -68.95072 -68.95072 -68.94872
  Beta  occ. eigenvalues --  -68.94872 -68.94381 -68.94381 -68.93920 -68.93815
  Beta  occ. eigenvalues --  -68.93502 -68.93502  -6.30891  -6.30412  -6.29566
  Beta  occ. eigenvalues --   -6.29566  -6.29525  -6.29525  -6.28856  -6.28856
  Beta  occ. eigenvalues --   -6.28388  -6.28277  -6.27863  -6.27862  -4.41550
  Beta  occ. eigenvalues --   -4.41215  -4.41167  -4.40835  -4.40793  -4.40237
  Beta  occ. eigenvalues --   -4.40055  -4.40055  -4.39923  -4.39922  -4.39816
  Beta  occ. eigenvalues --   -4.39816  -4.39804  -4.39803  -4.39721  -4.39721
  Beta  occ. eigenvalues --   -4.39631  -4.39631  -4.39223  -4.39222  -4.39142
  Beta  occ. eigenvalues --   -4.39142  -4.38872  -4.38859  -4.38851  -4.38693
  Beta  occ. eigenvalues --   -4.38684  -4.38509  -4.38418  -4.38211  -4.37952
  Beta  occ. eigenvalues --   -4.37952  -4.37932  -4.37932  -4.37894  -4.37894
  Beta  occ. eigenvalues --   -1.03658  -0.95644  -0.89111  -0.86008  -0.83424
  Beta  occ. eigenvalues --   -0.74263  -0.72589  -0.70169  -0.69004  -0.65786
  Beta  occ. eigenvalues --   -0.58190  -0.55389  -0.54018  -0.51224  -0.50559
  Beta  occ. eigenvalues --   -0.49278  -0.46297  -0.45324  -0.44330  -0.43668
  Beta  occ. eigenvalues --   -0.42715  -0.42621  -0.40363
  Beta virt. eigenvalues --   -0.18321  -0.14984  -0.13289  -0.11918  -0.10770
  Beta virt. eigenvalues --   -0.10716  -0.09039  -0.08651  -0.07733  -0.07301
  Beta virt. eigenvalues --   -0.06744  -0.06283  -0.05233  -0.05135  -0.04660

 Mulliken atomic charges:
              1
     1  Si   0.071492
     2  Si  -0.019412
     3  Si   0.228426
     4  Si   0.038364
     5  Si   0.032072
     6  Si   0.093648
     7  Si   0.290963
     8  Si  -0.019412
     9  Si   0.228426
    10  Si   0.038364
    11  Si   0.071492
    12  Si  -0.054423
 Sum of Mulliken atomic charges =   1.00000

 Dipole moment (field-independent basis, Debye):
    X=             -0.4368    Y=              0.0189    Z=              0.0000  Tot=              0.4372
 Quadrupole moment (field-independent basis, Debye-Ang):
   XX=           -139.3163   YY=           -141.5707   ZZ=           -128.9243
   XY=              0.5197   XZ=              0.0000   YZ=              0.0000

 Normal termination of Gaussian 09 at Mon Dec 19 11:25:42 2011.
