 Gaussian 09, Revision A.02,
 Gaussian 09:  AM64L-G09RevA.02 11-Jun-2009

 -----------------------
 # G4 scfcyc=500 scf=xqc
 -----------------------

 ---------
 si10-an-d
 ---------
 Symbolic Z-matrix:
 Charge = -1 Multiplicity = 2

 SCF Done:  E(UB3LYP) =  -2895.02137957     A.U. after   19 cycles
 SCF Done:  E(UB3LYP) =  -2895.02155280     A.U. after   11 cycles
 SCF Done:  E(UB3LYP) =  -2895.02165703     A.U. after   11 cycles
 SCF Done:  E(UB3LYP) =  -2895.02167058     A.U. after   11 cycles
 SCF Done:  E(UB3LYP) =  -2895.02167163     A.U. after   10 cycles
 SCF Done:  E(UB3LYP) =  -2895.02167230     A.U. after    9 cycles
 Optimization completed.
    -- Stationary point found.
 Normal termination of Gaussian 09 at Mon Mar  5 12:38:31 2012.

 ----------------------------------------------------------
 #N Geom=AllCheck Guess=TCheck SCRF=Check B3LYP/GTBas3 Freq
 ----------------------------------------------------------

 si10-an-d
 ---------
 Redundant internal coordinates taken from checkpoint file:
 S9L-ne-d-01.chk
 Charge = -1 Multiplicity = 2

 SCF Done:  E(UB3LYP) =  -2895.02167230     A.U. after    1 cycles

  Exact polarizability: 298.323   0.000 298.335   0.000  -0.003 332.615
 Approx polarizability: 981.529   0.000 981.529   0.000   0.0001113.227

                     1                      2                      3
                     E                      E                      E
 Frequencies --    92.0674                92.0683               145.8739
 Red. masses --    27.9769                27.9769                27.9769
 Frc consts  --     0.1397                 0.1397                 0.3508
 IR Inten    --     0.0304                 0.0303                 0.3045

                     4                      5                      6
                     E                      E                      E
 Frequencies --   145.8739               214.1191               214.1191
 Red. masses --    27.9769                27.9769                27.9769
 Frc consts  --     0.3508                 0.7557                 0.7557
 IR Inten    --     0.3044                 1.1238                 1.1238

                     7                      8                      9
                    A1                     A2                      E
 Frequencies --   219.4782               251.2541               259.1593
 Red. masses --    27.9769                27.9769                27.9769
 Frc consts  --     0.7940                 1.0406                 1.1071
 IR Inten    --     0.0241                 0.0000                 0.6334

                    10                     11                     12
                     E                     A1                     A1
 Frequencies --   259.1593               262.7565               275.5808
 Red. masses --    27.9769                27.9769                27.9769
 Frc consts  --     1.1071                 1.1380                 1.2518
 IR Inten    --     0.6335                 0.2224                 0.0437

                    13                     14                     15
                     E                      E                     A2
 Frequencies --   279.5314               279.5316               299.7585
 Red. masses --    27.9769                27.9769                27.9769
 Frc consts  --     1.2880                 1.2880                 1.4811
 IR Inten    --     0.6983                 0.6988                 0.0000

                    16                     17                     18
                     E                      E                      E
 Frequencies --   306.5313               306.5313               331.4991
 Red. masses --    27.9769                27.9769                27.9769
 Frc consts  --     1.5488                 1.5488                 1.8114
 IR Inten    --     0.0146                 0.0146                 0.7283

                    19                     20                     21
                     E                     A1                     A1
 Frequencies --   331.4991               337.5961               358.4223
 Red. masses --    27.9769                27.9769                27.9769
 Frc consts  --     1.8114                 1.8786                 2.1176
 IR Inten    --     0.7282                 0.0293                 0.6368

                    22                     23                     24
                     E                      E                     A1
 Frequencies --   411.7655               411.7655               448.0221
 Red. masses --    27.9769                27.9769                27.9769
 Frc consts  --     2.7948                 2.7948                 3.3086
 IR Inten    --     0.2064                 0.2066                 0.6508

 - Thermochemistry -
 -------------------
 Temperature   298.150 Kelvin.  Pressure   1.00000 Atm.
 Atom     1 has atomic number 14 and mass  27.97693

 Molecular mass:   279.76928 amu.
 Principal axes and moments of inertia in atomic units:
                           1         2         3
     Eigenvalues --  3041.360273472.277973472.27797
           X            0.00000   0.98058  -0.19612
           Y            0.00000   0.19612   0.98058
           Z            1.00000   0.00000   0.00000
 This molecule is a prolate symmetric top.
 Rotational symmetry number  3.
 Warning -- assumption of classical behavior for rotation
           may cause significant error
 Rotational temperatures (Kelvin)      0.02848     0.02494     0.02494
 Rotational constants (GHZ):           0.59340     0.51976     0.51976
 Zero-point vibrational energy      39081.8 (Joules/Mol)
                                    9.34077 (Kcal/Mol)
 Warning -- explicit consideration of  24 degrees of freedom as
           vibrations may cause significant error
 Vibrational temperatures:    132.46   132.47   209.88   209.88   308.07
          (Kelvin)            308.07   315.78   361.50   372.87   372.87
                              378.05   396.50   402.18   402.18   431.29
                              441.03   441.03   476.95   476.95   485.72
                              515.69   592.44   592.44   644.60

 Zero-point correction=                           0.014885 (Hartree/Particle)
 Thermal correction to Energy=                    0.028971
 Thermal correction to Enthalpy=                  0.029915
 Thermal correction to Gibbs Free Energy=        -0.025024
 Sum of electronic and zero-point Energies=          -2895.006787
 Sum of electronic and thermal Energies=             -2894.992701
 Sum of electronic and thermal Enthalpies=           -2894.991757
 Sum of electronic and thermal Free Energies=        -2895.046696

                     E (Thermal)             CV                S
                      KCal/Mol        Cal/Mol-Kelvin    Cal/Mol-Kelvin
 Total                   18.180             46.908            115.628
 Electronic               0.000              0.000              1.377
 Translational            0.889              2.981             42.785
 Rotational               0.889              2.981             29.789
 Vibrational             16.402             40.947             41.677
 Vibration     1          0.602              1.955              3.616
 Vibration     2          0.602              1.955              3.616
 Vibration     3          0.617              1.907              2.725
 Vibration     4          0.617              1.907              2.725
 Vibration     5          0.644              1.819              2.008
 Vibration     6          0.644              1.819              2.008
 Vibration     7          0.647              1.811              1.963
 Vibration     8          0.663              1.761              1.722
 Vibration     9          0.668              1.747              1.667
 Vibration    10          0.668              1.747              1.667
 Vibration    11          0.670              1.741              1.643
 Vibration    12          0.677              1.719              1.561
 Vibration    13          0.680              1.711              1.537
 Vibration    14          0.680              1.711              1.537
 Vibration    15          0.692              1.674              1.418
 Vibration    16          0.697              1.661              1.381
 Vibration    17          0.697              1.661              1.381
 Vibration    18          0.714              1.613              1.253
 Vibration    19          0.714              1.613              1.253
 Vibration    20          0.718              1.600              1.223
 Vibration    21          0.733              1.558              1.129
 Vibration    22          0.776              1.445              0.920
 Vibration    23          0.776              1.445              0.920
 Vibration    24          0.807              1.365              0.802

 Optimization completed.
    -- Stationary point found.
 Normal termination of Gaussian 09 at Mon Mar  5 12:55:11 2012.

 -----------------------------------------------------------------
 #N Geom=AllCheck Guess=TCheck SCRF=Check CCSD(T,E4T,FrzG4)/GTBas1
 -----------------------------------------------------------------

 si10-an-d
 ---------
 Redundant internal coordinates taken from checkpoint file:
 S9L-ne-d-01.chk
 Charge = -1 Multiplicity = 2

 SCF Done:  E(UHF) =  -2889.04392440     A.U. after   23 cycles
 E2 =    -0.1024422905D+01 EUMP2 =    -0.28900683473054D+04
 CCSD(T)= -0.28901242019D+04
 PMP3-0=-2889.9817445\MP4SDQ=-2890.0640949\CCSD=-2890.0287292\CCSD(T)=-
 Normal termination of Gaussian 09 at Mon Mar  5 13:46:50 2012.

 ---------------------------------------------------------
 #N Geom=AllCheck Guess=TCheck SCRF=Check MP4=FrzG4/GTBas2
 ---------------------------------------------------------

 si10-an-d
 ---------
 Redundant internal coordinates taken from checkpoint file:
 S9L-ne-d-01.chk
 Charge = -1 Multiplicity = 2

 SCF Done:  E(UHF) =  -2889.05144641     A.U. after   22 cycles
 E2 =    -0.1041420081D+01 EUMP2 =    -0.28900928664944D+04
 Normal termination of Gaussian 09 at Mon Mar  5 14:17:37 2012.

 ---------------------------------------------------------
 #N Geom=AllCheck Guess=TCheck SCRF=Check MP4=FrzG4/GTBas3
 ---------------------------------------------------------

 si10-an-d
 ---------
 Redundant internal coordinates taken from checkpoint file:
 S9L-ne-d-01.chk
 Charge = -1 Multiplicity = 2

 SCF Done:  E(UHF) =  -2889.11415433     A.U. after   22 cycles
 E2 =    -0.1280847866D+01 EUMP2 =    -0.28903950021911D+04
 Normal termination of Gaussian 09 at Mon Mar  5 17:16:08 2012.

 -----------------------------------------------------------
 #N Geom=AllCheck Guess=TCheck SCRF=Check MP2=Full/GTLargeXP
 -----------------------------------------------------------

 si10-an-d
 ---------
 Redundant internal coordinates taken from checkpoint file:
 S9L-ne-d-01.chk
 Charge = -1 Multiplicity = 2

 SCF Done:  E(UHF) =  -2889.30703407     A.U. after   20 cycles
 E2 =    -0.4251115412D+01 EUMP2 =    -0.28935581494831D+04
 Normal termination of Gaussian 09 at Mon Mar  5 20:35:37 2012.
 SCF Done:  E(UHF) =  -2889.36116623     A.U. after   17 cycles
 Normal termination of Gaussian 09 at Mon Mar  5 20:57:02 2012.

                         Standard orientation:
 ---------------------------------------------------------------------
 Center     Atomic      Atomic             Coordinates (Angstroms)
 Number     Number       Type             X           Y           Z
 ---------------------------------------------------------------------
      1         14           0        0.000000    0.000000    2.842198
      2         14           0        0.000000   -1.521266    0.984838
      3         14           0       -1.317455    0.760633    0.984838
      4         14           0        1.317455    0.760633    0.984838
      5         14           0        0.000000    2.390910   -0.265411
      6         14           0       -2.070589   -1.195455   -0.265411
      7         14           0        2.070589   -1.195455   -0.265411
      8         14           0        0.000000   -1.454839   -1.666826
      9         14           0       -1.259928    0.727420   -1.666826
     10         14           0        1.259928    0.727420   -1.666826
 ---------------------------------------------------------------------

 SCF Done:  E(UHF) =  -2889.37119014     A.U. after   15 cycles

 The electronic state is 2-A1.
 Alpha  occ. eigenvalues --  -68.68132 -68.66728 -68.66728 -68.66728 -68.66571
 Alpha  occ. eigenvalues --  -68.66571 -68.66571 -68.65023 -68.65023 -68.65023
 Alpha  occ. eigenvalues --   -6.02540  -6.01357  -6.01348  -6.01348  -6.01056
 Alpha  occ. eigenvalues --   -6.01043  -6.01043  -5.99619  -5.99619  -5.99619
 Alpha  occ. eigenvalues --   -4.13116  -4.12565  -4.12565  -4.11957  -4.11942
 Alpha  occ. eigenvalues --   -4.11942  -4.11646  -4.11642  -4.11642  -4.11632
 Alpha  occ. eigenvalues --   -4.11632  -4.11628  -4.11506  -4.11501  -4.11501
 Alpha  occ. eigenvalues --   -4.11217  -4.11217  -4.11208  -4.11199  -4.11170
 Alpha  occ. eigenvalues --   -4.11170  -4.09947  -4.09947  -4.09947  -4.09842
 Alpha  occ. eigenvalues --   -4.09842  -4.09841  -4.09775  -4.09775  -4.09775
 Alpha  occ. eigenvalues --   -0.76168  -0.63688  -0.60923  -0.60923  -0.46973
 Alpha  occ. eigenvalues --   -0.41368  -0.41368  -0.40254  -0.40254  -0.33851
 Alpha  occ. eigenvalues --   -0.25452  -0.20949  -0.20949  -0.18776  -0.18776
 Alpha  occ. eigenvalues --   -0.18476  -0.17477  -0.17477  -0.17301  -0.16920
 Alpha  occ. eigenvalues --   -0.11149
 Alpha virt. eigenvalues --    0.10010   0.10634   0.10634   0.10728   0.11110
 Alpha virt. eigenvalues --    0.11110   0.11305   0.11305   0.11485   0.12363
 Alpha virt. eigenvalues --    0.12363   0.12819   0.13931   0.13931   0.14879

  Beta  occ. eigenvalues --  -68.68125 -68.66676 -68.66675 -68.66675 -68.66505
  Beta  occ. eigenvalues --  -68.66505 -68.66505 -68.64962 -68.64962 -68.64962
  Beta  occ. eigenvalues --   -6.02571  -6.01307  -6.01299  -6.01299  -6.00999
  Beta  occ. eigenvalues --   -6.00987  -6.00987  -5.99543  -5.99543  -5.99542
  Beta  occ. eigenvalues --   -4.12884  -4.12884  -4.12331  -4.11751  -4.11734
  Beta  occ. eigenvalues --   -4.11734  -4.11675  -4.11675  -4.11666  -4.11449
  Beta  occ. eigenvalues --   -4.11443  -4.11443  -4.11265  -4.11238  -4.11238
  Beta  occ. eigenvalues --   -4.11214  -4.11214  -4.11204  -4.10966  -4.10957
  Beta  occ. eigenvalues --   -4.10957  -4.09796  -4.09796  -4.09796  -4.09764
  Beta  occ. eigenvalues --   -4.09764  -4.09764  -4.09663  -4.09663  -4.09663
  Beta  occ. eigenvalues --   -0.75200  -0.62902  -0.60188  -0.60188  -0.45633
  Beta  occ. eigenvalues --   -0.40660  -0.40660  -0.39511  -0.39511  -0.32617
  Beta  occ. eigenvalues --   -0.20358  -0.20358  -0.20272  -0.17534  -0.17534
  Beta  occ. eigenvalues --   -0.17450  -0.17079  -0.16747  -0.16312  -0.16312
  Beta virt. eigenvalues --    0.09168   0.10201   0.10608   0.10608   0.10831
  Beta virt. eigenvalues --    0.11248   0.11248   0.11347   0.11347   0.11890
  Beta virt. eigenvalues --    0.12817   0.12817   0.12834   0.13950   0.13950

 Mulliken atomic charges:
              1
     1  Si  -0.211351
     2  Si   0.067515
     3  Si   0.067515
     4  Si   0.067515
     5  Si  -0.241066
     6  Si  -0.241066
     7  Si  -0.241066
     8  Si  -0.089332
     9  Si  -0.089332
    10  Si  -0.089332
 Sum of Mulliken atomic charges =  -1.00000

 Dipole moment (field-independent basis, Debye):
    X=              0.0000    Y=              0.0000    Z=              1.3033  Tot=              1.3033
 Quadrupole moment (field-independent basis, Debye-Ang):
   XX=           -160.1506   YY=           -160.1506   ZZ=           -160.7940
   XY=              0.0000   XZ=              0.0000   YZ=              0.0000

 Normal termination of Gaussian 09 at Mon Mar  5 23:03:13 2012.
