 Gaussian 09, Revision A.02,
 Gaussian 09:  AM64L-G09RevA.02 11-Jun-2009

 -----------------------
 # G4 scfcyc=500 scf=xqc
 -----------------------

 -----
 si3-n
 -----
 Symbolic Z-matrix:
 Charge =  0 Multiplicity = 1

 SCF Done:  E(RB3LYP) =  -868.373338210     A.U. after   14 cycles
 SCF Done:  E(RB3LYP) =  -868.373423434     A.U. after   11 cycles
 SCF Done:  E(RB3LYP) =  -868.373427094     A.U. after    9 cycles
 SCF Done:  E(RB3LYP) =  -868.373427528     A.U. after    8 cycles
 Optimization completed.
    -- Stationary point found.
 Normal termination of Gaussian 09 at Wed Jan  4 10:32:14 2012.

 ----------------------------------------------------------
 #N Geom=AllCheck Guess=TCheck SCRF=Check B3LYP/GTBas3 Freq
 ----------------------------------------------------------

 si3-n
 -----
 Redundant internal coordinates taken from checkpoint file:
 S9L-ne-d-01.chk
 Charge =  0 Multiplicity = 1

 SCF Done:  E(RB3LYP) =  -868.373427528     A.U. after    1 cycles

  Exact polarizability:  59.646   0.000 129.255   0.000   0.000  98.325
 Approx polarizability: 108.910   0.000 334.066   0.000   0.000 244.683

                     1                      2                      3
                    A1                     B2                     A1
 Frequencies --   177.6740               538.0298               545.4502
 Red. masses --    27.9769                27.9769                27.9769
 Frc consts  --     0.5204                 4.7716                 4.9041
 IR Inten    --     4.3167                40.9621                 9.4190

 - Thermochemistry -
 -------------------
 Temperature   298.150 Kelvin.  Pressure   1.00000 Atm.
 Atom     1 has atomic number 14 and mass  27.97693

 Molecular mass:    83.93079 amu.
 Principal axes and moments of inertia in atomic units:
                           1         2         3
     Eigenvalues --   184.49313 398.95329 583.44642
           X            0.00000   0.00000   1.00000
           Y            1.00000   0.00000   0.00000
           Z            0.00000   1.00000   0.00000
 This molecule is an asymmetric top.
 Rotational symmetry number  2.
 Rotational temperatures (Kelvin)      0.46947     0.21710     0.14845
 Rotational constants (GHZ):           9.78216     4.52369     3.09324
 Zero-point vibrational energy       7543.4 (Joules/Mol)
                                    1.80291 (Kcal/Mol)
 Warning -- explicit consideration of   3 degrees of freedom as
           vibrations may cause significant error
 Vibrational temperatures:    255.63   774.10   784.78
          (Kelvin)

 Zero-point correction=                           0.002873 (Hartree/Particle)
 Thermal correction to Energy=                    0.006692
 Thermal correction to Enthalpy=                  0.007636
 Thermal correction to Gibbs Free Energy=        -0.023988
 Sum of electronic and zero-point Energies=           -868.370554
 Sum of electronic and thermal Energies=              -868.366735
 Sum of electronic and thermal Enthalpies=            -868.365791
 Sum of electronic and thermal Free Energies=         -868.397416

                     E (Thermal)             CV                S
                      KCal/Mol        Cal/Mol-Kelvin    Cal/Mol-Kelvin
 Total                    4.199             10.147             66.560
 Electronic               0.000              0.000              0.000
 Translational            0.889              2.981             39.196
 Rotational               0.889              2.981             23.888
 Vibrational              2.422              4.185              3.476
 Vibration     1          0.628              1.870              2.353
 Vibration     2          0.893              1.166              0.570
 Vibration     3          0.901              1.150              0.554

 Optimization completed.
    -- Stationary point found.
 Normal termination of Gaussian 09 at Wed Jan  4 10:32:27 2012.

 -----------------------------------------------------------------
 #N Geom=AllCheck Guess=TCheck SCRF=Check CCSD(T,E4T,FrzG4)/GTBas1
 -----------------------------------------------------------------

 si3-n
 -----
 Redundant internal coordinates taken from checkpoint file:
 S9L-ne-d-01.chk
 Charge =  0 Multiplicity = 1

 SCF Done:  E(RHF) =  -866.606409908     A.U. after   13 cycles
 E2 =    -0.2467963856D+00 EUMP2 =    -0.86685320629395D+03
 CCSD(T)= -0.86689976886D+03
 Normal termination of Gaussian 09 at Wed Jan  4 10:32:31 2012.

 ---------------------------------------------------------
 #N Geom=AllCheck Guess=TCheck SCRF=Check MP4=FrzG4/GTBas2
 ---------------------------------------------------------

 si3-n
 -----
 Redundant internal coordinates taken from checkpoint file:
 S9L-ne-d-01.chk
 Charge =  0 Multiplicity = 1

 SCF Done:  E(RHF) =  -866.608263379     A.U. after   12 cycles
 E2 =    -0.2491812826D+00 EUMP2 =    -0.86685744466205D+03
 Normal termination of Gaussian 09 at Wed Jan  4 10:32:33 2012.

 ---------------------------------------------------------
 #N Geom=AllCheck Guess=TCheck SCRF=Check MP4=FrzG4/GTBas3
 ---------------------------------------------------------

 si3-n
 -----
 Redundant internal coordinates taken from checkpoint file:
 S9L-ne-d-01.chk
 Charge =  0 Multiplicity = 1

 SCF Done:  E(RHF) =  -866.625556876     A.U. after   13 cycles
 E2 =    -0.3027063721D+00 EUMP2 =    -0.86692826324809D+03
 Normal termination of Gaussian 09 at Wed Jan  4 10:32:38 2012.

 -----------------------------------------------------------
 #N Geom=AllCheck Guess=TCheck SCRF=Check MP2=Full/GTLargeXP
 -----------------------------------------------------------

 si3-n
 -----
 Redundant internal coordinates taken from checkpoint file:
 S9L-ne-d-01.chk
 Charge =  0 Multiplicity = 1

 SCF Done:  E(RHF) =  -866.683821373     A.U. after   12 cycles
 E2 =    -0.1189986015D+01 EUMP2 =    -0.86787380738761D+03
 Normal termination of Gaussian 09 at Wed Jan  4 10:34:28 2012.
 SCF Done:  E(RHF) =  -866.701213727     A.U. after   10 cycles
 Normal termination of Gaussian 09 at Wed Jan  4 10:34:50 2012.

                         Standard orientation:
 ---------------------------------------------------------------------
 Center     Atomic      Atomic             Coordinates (Angstroms)
 Number     Number       Type             X           Y           Z
 ---------------------------------------------------------------------
      1         14           0        0.000000    1.413016   -0.554773
      2         14           0        0.000000   -1.413016   -0.554773
      3         14           0        0.000000    0.000000    1.109547
 ---------------------------------------------------------------------

 SCF Done:  E(RHF) =  -866.703597259     A.U. after   10 cycles

 The electronic state is 1-A1.
 Alpha  occ. eigenvalues --  -68.82111 -68.82111 -68.76410  -6.16462  -6.16459
 Alpha  occ. eigenvalues --   -6.11473  -4.26564  -4.26561  -4.26546  -4.26546
 Alpha  occ. eigenvalues --   -4.26505  -4.26496  -4.21809  -4.21749  -4.21709
 Alpha  occ. eigenvalues --   -0.75252  -0.55385  -0.45587  -0.31364  -0.30460
 Alpha  occ. eigenvalues --   -0.29832
 Alpha virt. eigenvalues --   -0.03183  -0.00024   0.02696   0.03259   0.03740
 Alpha virt. eigenvalues --    0.04203   0.04840   0.05531   0.06180   0.06862
 Alpha virt. eigenvalues --    0.07146   0.07161   0.08400   0.08424   0.11482

 Mulliken atomic charges:
              1
     1  Si   0.084309
     2  Si   0.084309
     3  Si  -0.168618
 Sum of Mulliken atomic charges =   0.00000

 Dipole moment (field-independent basis, Debye):
    X=              0.0000    Y=              0.0000    Z=              0.0783  Tot=              0.0783
 Quadrupole moment (field-independent basis, Debye-Ang):
   XX=            -41.3672   YY=            -42.4510   ZZ=            -40.5991
   XY=              0.0000   XZ=              0.0000   YZ=              0.0000

 Normal termination of Gaussian 09 at Wed Jan  4 10:38:52 2012.
