 Gaussian 09, Revision A.02,
 Gaussian 09:  AM64L-G09RevA.02 11-Jun-2009

 -----------------------
 # G4 scfcyc=500 scf=xqc
 -----------------------

 -------
 si3-n-t
 -------
 Symbolic Z-matrix:
 Charge =  0 Multiplicity = 3

 SCF Done:  E(UB3LYP) =  -868.376200011     A.U. after   12 cycles
 Optimization completed.
    -- Stationary point found.
 Normal termination of Gaussian 09 at Sun Jun 16 12:51:49 2013.

 ----------------------------------------------------------
 #N Geom=AllCheck Guess=TCheck SCRF=Check B3LYP/GTBas3 Freq
 ----------------------------------------------------------

 si3-n-t
 -------
 Redundant internal coordinates taken from checkpoint file:
 S9L-ne-d-01.chk
 Charge =  0 Multiplicity = 3

 SCF Done:  E(UB3LYP) =  -868.376200011     A.U. after    1 cycles

  Exact polarizability: 110.293   0.000 110.298   0.000   0.000  56.310
 Approx polarizability: 256.263   0.000 256.263   0.000   0.000 105.154

                     1                      2                      3
                    E'                     E'                     A1'
 Frequencies --   318.3141               318.3141               493.2990
 Red. masses --    27.9769                27.9769                27.9769
 Frc consts  --     1.6702                 1.6702                 4.0112
 IR Inten    --     0.3893                 0.3898                 0.0000

 - Thermochemistry -
 -------------------
 Temperature   298.150 Kelvin.  Pressure   1.00000 Atm.
 Atom     1 has atomic number 14 and mass  27.97693

 Molecular mass:    83.93079 amu.
 Principal axes and moments of inertia in atomic units:
                           1         2         3
     Eigenvalues --   263.11297 263.11297 526.22594
           X            0.00000   1.00000   0.00000
           Y            1.00000   0.00000   0.00000
           Z            0.00000   0.00000   1.00000
 This molecule is an oblate symmetric top.
 Rotational symmetry number  6.
 Rotational temperatures (Kelvin)      0.32919     0.32919     0.16459
 Rotational constants (GHZ):           6.85919     6.85919     3.42959
 Zero-point vibrational energy       6758.5 (Joules/Mol)
                                    1.61531 (Kcal/Mol)
 Warning -- explicit consideration of   3 degrees of freedom as
           vibrations may cause significant error
 Vibrational temperatures:    457.98   457.98   709.75
          (Kelvin)

 Zero-point correction=                           0.002574 (Hartree/Particle)
 Thermal correction to Energy=                    0.006431
 Thermal correction to Enthalpy=                  0.007376
 Thermal correction to Gibbs Free Energy=        -0.024094
 Sum of electronic and zero-point Energies=           -868.373626
 Sum of electronic and thermal Energies=              -868.369769
 Sum of electronic and thermal Enthalpies=            -868.368824
 Sum of electronic and thermal Free Energies=         -868.400294

                     E (Thermal)             CV                S
                      KCal/Mol        Cal/Mol-Kelvin    Cal/Mol-Kelvin
 Total                    4.036             10.504             66.233
 Electronic               0.000              0.000              2.183
 Translational            0.889              2.981             39.196
 Rotational               0.889              2.981             21.542
 Vibrational              2.258              4.542              3.313
 Vibration     1          0.705              1.639              1.319
 Vibration     2          0.705              1.639              1.319
 Vibration     3          0.849              1.265              0.675

 Optimization completed.
    -- Stationary point found.
 Normal termination of Gaussian 09 at Sun Jun 16 12:51:59 2013.

 -----------------------------------------------------------------
 #N Geom=AllCheck Guess=TCheck SCRF=Check CCSD(T,E4T,FrzG4)/GTBas1
 -----------------------------------------------------------------

 si3-n-t
 -------
 Redundant internal coordinates taken from checkpoint file:
 S9L-ne-d-01.chk
 Charge =  0 Multiplicity = 3

 SCF Done:  E(UHF) =  -866.620479321     A.U. after   12 cycles
 E2 =    -0.2337129830D+00 EUMP2 =    -0.86685419230432D+03
 CCSD(T)= -0.86690024623D+03
 PMP3-0=-866.8787917\MP4SDQ=-866.8819164\CCSD=-866.8818384\CCSD(T)=-866
 Normal termination of Gaussian 09 at Sun Jun 16 12:52:03 2013.

 ---------------------------------------------------------
 #N Geom=AllCheck Guess=TCheck SCRF=Check MP4=FrzG4/GTBas2
 ---------------------------------------------------------

 si3-n-t
 -------
 Redundant internal coordinates taken from checkpoint file:
 S9L-ne-d-01.chk
 Charge =  0 Multiplicity = 3

 SCF Done:  E(UHF) =  -866.622411361     A.U. after   12 cycles
 E2 =    -0.2357376846D+00 EUMP2 =    -0.86685814904564D+03
 Normal termination of Gaussian 09 at Sun Jun 16 12:52:06 2013.

 ---------------------------------------------------------
 #N Geom=AllCheck Guess=TCheck SCRF=Check MP4=FrzG4/GTBas3
 ---------------------------------------------------------

 si3-n-t
 -------
 Redundant internal coordinates taken from checkpoint file:
 S9L-ne-d-01.chk
 Charge =  0 Multiplicity = 3

 SCF Done:  E(UHF) =  -866.642889484     A.U. after   13 cycles
 E2 =    -0.2846709999D+00 EUMP2 =    -0.86692756048375D+03
 Normal termination of Gaussian 09 at Sun Jun 16 12:52:14 2013.

 -----------------------------------------------------------
 #N Geom=AllCheck Guess=TCheck SCRF=Check MP2=Full/GTLargeXP
 -----------------------------------------------------------

 si3-n-t
 -------
 Redundant internal coordinates taken from checkpoint file:
 S9L-ne-d-01.chk
 Charge =  0 Multiplicity = 3

 SCF Done:  E(UHF) =  -866.700718772     A.U. after   12 cycles
 E2 =    -0.1171642710D+01 EUMP2 =    -0.86787236148229D+03
 Normal termination of Gaussian 09 at Sun Jun 16 12:54:44 2013.
 SCF Done:  E(UHF) =  -866.718626213     A.U. after   11 cycles
 Normal termination of Gaussian 09 at Sun Jun 16 12:55:13 2013.

                         Standard orientation:
 ---------------------------------------------------------------------
 Center     Atomic      Atomic             Coordinates (Angstroms)
 Number     Number       Type             X           Y           Z
 ---------------------------------------------------------------------
      1         14           0        0.000000    1.325033    0.000000
      2         14           0        1.147512   -0.662516    0.000000
      3         14           0       -1.147512   -0.662516    0.000000
 ---------------------------------------------------------------------

 SCF Done:  E(UHF) =  -866.721196316     A.U. after   11 cycles

 The electronic state is 3-A1'.
 Alpha  occ. eigenvalues --  -68.80729 -68.80729 -68.80729  -6.15345  -6.15312
 Alpha  occ. eigenvalues --   -6.15312  -4.26062  -4.26062  -4.26017  -4.25695
 Alpha  occ. eigenvalues --   -4.25591  -4.25591  -4.25334  -4.25320  -4.25320
 Alpha  occ. eigenvalues --   -0.80728  -0.55737  -0.55737  -0.35283  -0.32059
 Alpha  occ. eigenvalues --   -0.32059  -0.31783
 Alpha virt. eigenvalues --    0.01828   0.01828   0.03036   0.03036   0.04031
 Alpha virt. eigenvalues --    0.04593   0.05800   0.05800   0.06834   0.06990
 Alpha virt. eigenvalues --    0.07268   0.07268   0.10438   0.10438   0.10811

  Beta  occ. eigenvalues --  -68.80298 -68.80298 -68.80298  -6.14878  -6.14853
  Beta  occ. eigenvalues --   -6.14853  -4.25111  -4.25098  -4.25098  -4.24850
  Beta  occ. eigenvalues --   -4.24750  -4.24750  -4.24432  -4.24432  -4.24398
  Beta  occ. eigenvalues --   -0.74497  -0.45474  -0.45474  -0.31054  -0.29390
  Beta virt. eigenvalues --   -0.02246  -0.02246   0.02625   0.02625   0.03173
  Beta virt. eigenvalues --    0.03173   0.04204   0.04599   0.06320   0.06320
  Beta virt. eigenvalues --    0.07265   0.07383   0.07543   0.07543   0.11114

 Mulliken atomic charges:
              1
     1  Si   0.000000
     2  Si   0.000000
     3  Si   0.000000
 Sum of Mulliken atomic charges =   0.00000

 Dipole moment (field-independent basis, Debye):
    X=              0.0000    Y=              0.0000    Z=              0.0000  Tot=              0.0000
 Quadrupole moment (field-independent basis, Debye-Ang):
   XX=            -41.7771   YY=            -41.7771   ZZ=            -40.8902
   XY=              0.0000   XZ=              0.0000   YZ=              0.0000

 Normal termination of Gaussian 09 at Sun Jun 16 12:58:57 2013.
