 Gaussian 09, Revision A.02,
 Gaussian 09:  AM64L-G09RevA.02 11-Jun-2009

 -----------------------
 # G4 scfcyc=500 scf=xqc
 -----------------------

 ------
 si11-n
 ------
 Symbolic Z-matrix:
 Charge =  1 Multiplicity = 2

 SCF Done:  E(UB3LYP) =  -3184.17597561     A.U. after   21 cycles
 SCF Done:  E(UB3LYP) =  -3184.17614376     A.U. after   13 cycles
 SCF Done:  E(UB3LYP) =  -3184.17627717     A.U. after   16 cycles
 SCF Done:  E(UB3LYP) =  -3184.17635019     A.U. after   13 cycles
 SCF Done:  E(UB3LYP) =  -3184.17637538     A.U. after   13 cycles
 SCF Done:  E(UB3LYP) =  -3184.17638171     A.U. after   12 cycles
 Optimization completed.
    -- Stationary point found.
 Normal termination of Gaussian 09 at Mon Dec 19 11:59:13 2011.

 ----------------------------------------------------------
 #N Geom=AllCheck Guess=TCheck SCRF=Check B3LYP/GTBas3 Freq
 ----------------------------------------------------------

 si11-n
 ------
 Redundant internal coordinates taken from checkpoint file:
 S9L-ne-d-01.chk
 Charge =  1 Multiplicity = 2

 SCF Done:  E(UB3LYP) =  -3184.17638171     A.U. after    1 cycles

  Exact polarizability: 292.974 -21.081 341.288   0.000   0.000 276.100
 Approx polarizability:1027.685 -83.2231179.018   0.000   0.000 970.174

                     1                      2                      3
                    A"                     A'                     A"
 Frequencies --    99.8351               117.2919               132.6186
 Red. masses --    27.9769                27.9769                27.9769
 Frc consts  --     0.1643                 0.2268                 0.2899
 IR Inten    --     0.1371                 0.1815                 1.0630

                     4                      5                      6
                    A'                     A"                     A'
 Frequencies --   140.5189               152.6017               166.9281
 Red. masses --    27.9769                27.9769                27.9769
 Frc consts  --     0.3255                 0.3839                 0.4593
 IR Inten    --     0.0590                 0.1009                 0.7994

                     7                      8                      9
                    A'                     A"                     A"
 Frequencies --   183.2840               213.9978               221.2727
 Red. masses --    27.9769                27.9769                27.9769
 Frc consts  --     0.5537                 0.7549                 0.8071
 IR Inten    --     0.1805                 0.2798                 0.4132

                    10                     11                     12
                    A'                     A'                     A'
 Frequencies --   222.5730               229.2596               243.4046
 Red. masses --    27.9769                27.9769                27.9769
 Frc consts  --     0.8166                 0.8664                 0.9766
 IR Inten    --     2.8914                 3.2597                 0.8166

                    13                     14                     15
                    A"                     A'                     A"
 Frequencies --   250.8421               259.7301               266.8607
 Red. masses --    27.9769                27.9769                27.9769
 Frc consts  --     1.0372                 1.1120                 1.1739
 IR Inten    --     0.2403                 0.1756                 1.3312

                    16                     17                     18
                    A'                     A"                     A'
 Frequencies --   272.9181               287.6404               299.0607
 Red. masses --    27.9769                27.9769                27.9769
 Frc consts  --     1.2278                 1.3638                 1.4742
 IR Inten    --     2.2610                 0.9825                 0.9119

                    19                     20                     21
                    A'                     A'                     A"
 Frequencies --   315.6095               337.2090               342.2250
 Red. masses --    27.9769                27.9769                27.9769
 Frc consts  --     1.6419                 1.8743                 1.9305
 IR Inten    --     0.7029                 2.9904                 3.7803

                    22                     23                     24
                    A"                     A'                     A'
 Frequencies --   354.8944               365.4597               415.2767
 Red. masses --    27.9769                27.9769                27.9769
 Frc consts  --     2.0761                 2.2016                 2.8427
 IR Inten    --     1.4525                 4.0807                11.8796

                    25                     26                     27
                    A"                     A'                     A'
 Frequencies --   432.2730               441.8758               466.3935
 Red. masses --    27.9769                27.9769                27.9769
 Frc consts  --     3.0801                 3.2185                 3.5855
 IR Inten    --    14.3673                 5.7552                17.3061

 - Thermochemistry -
 -------------------
 Temperature   298.150 Kelvin.  Pressure   1.00000 Atm.
 Atom     1 has atomic number 14 and mass  27.97693

 Molecular mass:   307.74621 amu.
 Principal axes and moments of inertia in atomic units:
                           1         2         3
     Eigenvalues --  3433.692464433.337534579.32610
           X           -0.33113   0.94358   0.00000
           Y            0.94358   0.33113   0.00000
           Z            0.00000   0.00000   1.00000
 This molecule is an asymmetric top.
 Rotational symmetry number  1.
 Warning -- assumption of classical behavior for rotation
           may cause significant error
 Rotational temperatures (Kelvin)      0.02522     0.01954     0.01891
 Rotational constants (GHZ):           0.52560     0.40708     0.39411
 Zero-point vibrational energy      43256.1 (Joules/Mol)
                                   10.33846 (Kcal/Mol)
 Warning -- explicit consideration of  27 degrees of freedom as
           vibrations may cause significant error
 Vibrational temperatures:    143.64   168.76   190.81   202.18   219.56
          (Kelvin)            240.17   263.70   307.89   318.36   320.23
                              329.85   350.20   360.91   373.69   383.95
                              392.67   413.85   430.28   454.09   485.17
                              492.38   510.61   525.81   597.49   621.94
                              635.76   671.04

 Zero-point correction=                           0.016475 (Hartree/Particle)
 Thermal correction to Energy=                    0.032201
 Thermal correction to Enthalpy=                  0.033145
 Thermal correction to Gibbs Free Energy=        -0.026317
 Sum of electronic and zero-point Energies=          -3184.159906
 Sum of electronic and thermal Energies=             -3184.144181
 Sum of electronic and thermal Enthalpies=           -3184.143236
 Sum of electronic and thermal Free Energies=        -3184.202699

                     E (Thermal)             CV                S
                      KCal/Mol        Cal/Mol-Kelvin    Cal/Mol-Kelvin
 Total                   20.206             52.152            125.150
 Electronic               0.000              0.000              1.377
 Translational            0.889              2.981             43.069
 Rotational               0.889              2.981             32.611
 Vibrational             18.429             46.190             48.092
 Vibration     1          0.604              1.949              3.458
 Vibration     2          0.608              1.935              3.145
 Vibration     3          0.613              1.921              2.908
 Vibration     4          0.615              1.913              2.797
 Vibration     5          0.619              1.900              2.640
 Vibration     6          0.624              1.883              2.470
 Vibration     7          0.631              1.863              2.295
 Vibration     8          0.644              1.820              2.009
 Vibration     9          0.648              1.809              1.949
 Vibration    10          0.648              1.807              1.938
 Vibration    11          0.652              1.796              1.885
 Vibration    12          0.659              1.774              1.778
 Vibration    13          0.663              1.761              1.725
 Vibration    14          0.668              1.746              1.664
 Vibration    15          0.672              1.734              1.616
 Vibration    16          0.676              1.723              1.578
 Vibration    17          0.685              1.697              1.488
 Vibration    18          0.692              1.675              1.422
 Vibration    19          0.703              1.644              1.333
 Vibration    20          0.718              1.601              1.225
 Vibration    21          0.721              1.591              1.202
 Vibration    22          0.731              1.565              1.144
 Vibration    23          0.739              1.543              1.099
 Vibration    24          0.779              1.437              0.908
 Vibration    25          0.793              1.400              0.851
 Vibration    26          0.802              1.379              0.821
 Vibration    27          0.824              1.325              0.748

 Normal termination of Gaussian 09 at Mon Dec 19 12:14:17 2011.

 -----------------------------------------------------------------
 #N Geom=AllCheck Guess=TCheck SCRF=Check CCSD(T,E4T,FrzG4)/GTBas1
 -----------------------------------------------------------------

 si11-n
 ------
 Redundant internal coordinates taken from checkpoint file:
 S9L-ne-d-01.chk
 Charge =  1 Multiplicity = 2

 SCF Done:  E(UHF) =  -3177.63457819     A.U. after   31 cycles
 E2 =    -0.1082060517D+01 EUMP2 =    -0.31787166387042D+04
 CCSD(T)= -0.31787916716D+04
 Normal termination of Gaussian 09 at Mon Dec 19 13:01:19 2011.

 ---------------------------------------------------------
 #N Geom=AllCheck Guess=TCheck SCRF=Check MP4=FrzG4/GTBas2
 ---------------------------------------------------------

 si11-n
 ------
 Redundant internal coordinates taken from checkpoint file:
 S9L-ne-d-01.chk
 Charge =  1 Multiplicity = 2

 SCF Done:  E(UHF) =  -3177.64589156     A.U. after   31 cycles
 E2 =    -0.1094744025D+01 EUMP2 =    -0.31787406355896D+04
 Normal termination of Gaussian 09 at Mon Dec 19 13:24:49 2011.

 ---------------------------------------------------------
 #N Geom=AllCheck Guess=TCheck SCRF=Check MP4=FrzG4/GTBas3
 ---------------------------------------------------------

 si11-n
 ------
 Redundant internal coordinates taken from checkpoint file:
 S9L-ne-d-01.chk
 Charge =  1 Multiplicity = 2

 SCF Done:  E(UHF) =  -3177.72386529     A.U. after   28 cycles
 E2 =    -0.1346725319D+01 EUMP2 =    -0.31790705906137D+04
 Normal termination of Gaussian 09 at Mon Dec 19 15:24:48 2011.

 -----------------------------------------------------------
 #N Geom=AllCheck Guess=TCheck SCRF=Check MP2=Full/GTLargeXP
 -----------------------------------------------------------

 si11-n
 ------
 Redundant internal coordinates taken from checkpoint file:
 S9L-ne-d-01.chk
 Charge =  1 Multiplicity = 2

 SCF Done:  E(UHF) =  -3177.93607096     A.U. after   24 cycles
 E2 =    -0.4607980098D+01 EUMP2 =    -0.31825440510568D+04
 Normal termination of Gaussian 09 at Mon Dec 19 19:52:56 2011.
 SCF Done:  E(UHF) =  -3177.99505381     A.U. after   20 cycles
 Normal termination of Gaussian 09 at Mon Dec 19 20:48:01 2011.

                         Standard orientation:
 ---------------------------------------------------------------------
 Center     Atomic      Atomic             Coordinates (Angstroms)
 Number     Number       Type             X           Y           Z
 ---------------------------------------------------------------------
      1         14           0        0.600796   -3.207655    0.000000
      2         14           0       -1.406822   -1.750530    0.000000
      3         14           0       -1.350039    0.247299    1.325322
      4         14           0        0.157344    2.046992    0.000000
      5         14           0        0.863269   -1.147913   -1.243471
      6         14           0        0.863269   -1.147913    1.243471
      7         14           0       -1.350039    0.247299   -1.325322
      8         14           0        0.863269    1.035644    2.219048
      9         14           0       -2.289975    1.987420    0.000000
     10         14           0        2.185658    0.653713    0.000000
     11         14           0        0.863269    1.035644   -2.219048
 ---------------------------------------------------------------------

 SCF Done:  E(UHF) =  -3178.00633635     A.U. after   22 cycles

 The electronic state is 2-A'.
 Alpha  occ. eigenvalues --  -68.96263 -68.95977 -68.95920 -68.95920 -68.95737
 Alpha  occ. eigenvalues --  -68.95468 -68.95468 -68.95357 -68.95081 -68.95081
 Alpha  occ. eigenvalues --  -68.94598  -6.30623  -6.30525  -6.30500  -6.30494
 Alpha  occ. eigenvalues --   -6.30089  -6.30034  -6.30030  -6.29787  -6.29490
 Alpha  occ. eigenvalues --   -6.29490  -6.29235  -4.41461  -4.40890  -4.40875
 Alpha  occ. eigenvalues --   -4.40868  -4.40845  -4.40844  -4.40804  -4.40791
 Alpha  occ. eigenvalues --   -4.40791  -4.40749  -4.40554  -4.40485  -4.40480
 Alpha  occ. eigenvalues --   -4.40472  -4.40380  -4.40356  -4.40339  -4.40280
 Alpha  occ. eigenvalues --   -4.40268  -4.40112  -4.40043  -4.39970  -4.39878
 Alpha  occ. eigenvalues --   -4.39846  -4.39756  -4.39587  -4.39587  -4.39571
 Alpha  occ. eigenvalues --   -4.39570  -4.39550  -4.39550  -4.39443  -4.39348
 Alpha  occ. eigenvalues --   -1.05118  -0.94150  -0.91116  -0.89776  -0.78947
 Alpha  occ. eigenvalues --   -0.74252  -0.70983  -0.69958  -0.68496  -0.64661
 Alpha  occ. eigenvalues --   -0.59307  -0.53568  -0.50165  -0.49843  -0.48419
 Alpha  occ. eigenvalues --   -0.48330  -0.46823  -0.46268  -0.45980  -0.45716
 Alpha  occ. eigenvalues --   -0.43837  -0.40351
 Alpha virt. eigenvalues --   -0.15246  -0.15189  -0.12487  -0.11963  -0.11050
 Alpha virt. eigenvalues --   -0.08711  -0.08471  -0.07830  -0.07664  -0.07462
 Alpha virt. eigenvalues --   -0.06837  -0.06827  -0.05954  -0.05385  -0.04616

  Beta  occ. eigenvalues --  -68.96123 -68.95954 -68.95954 -68.95718 -68.95580
  Beta  occ. eigenvalues --  -68.95439 -68.95439 -68.95339 -68.95067 -68.95067
  Beta  occ. eigenvalues --  -68.94379  -6.30566  -6.30557  -6.30366  -6.30091
  Beta  occ. eigenvalues --   -6.30061  -6.29992  -6.29988  -6.29763  -6.29470
  Beta  occ. eigenvalues --   -6.29470  -6.28908  -4.40976  -4.40968  -4.40917
  Beta  occ. eigenvalues --   -4.40884  -4.40743  -4.40738  -4.40566  -4.40553
  Beta  occ. eigenvalues --   -4.40491  -4.40462  -4.40446  -4.40408  -4.40328
  Beta  occ. eigenvalues --   -4.40322  -4.40288  -4.40221  -4.40215  -4.40179
  Beta  occ. eigenvalues --   -4.40126  -4.39981  -4.39931  -4.39891  -4.39882
  Beta  occ. eigenvalues --   -4.39819  -4.39569  -4.39569  -4.39555  -4.39555
  Beta  occ. eigenvalues --   -4.39509  -4.39509  -4.39292  -4.39254  -4.39044
  Beta  occ. eigenvalues --   -1.04590  -0.93263  -0.90616  -0.89659  -0.77947
  Beta  occ. eigenvalues --   -0.72210  -0.70419  -0.69759  -0.68400  -0.63398
  Beta  occ. eigenvalues --   -0.57364  -0.49754  -0.49395  -0.48440  -0.48041
  Beta  occ. eigenvalues --   -0.47276  -0.46413  -0.46244  -0.45308  -0.44473
  Beta  occ. eigenvalues --   -0.42955
  Beta virt. eigenvalues --   -0.17728  -0.15140  -0.14139  -0.12298  -0.10477
  Beta virt. eigenvalues --   -0.10249  -0.08363  -0.08353  -0.07572  -0.07434
  Beta virt. eigenvalues --   -0.07159  -0.06668  -0.06596  -0.05783  -0.05222

 Mulliken atomic charges:
              1
     1  Si   0.118205
     2  Si  -0.026446
     3  Si   0.159287
     4  Si   0.209019
     5  Si   0.166410
     6  Si   0.166410
     7  Si   0.159287
     8  Si  -0.000963
     9  Si   0.016221
    10  Si   0.033533
    11  Si  -0.000963
 Sum of Mulliken atomic charges =   1.00000

 Dipole moment (field-independent basis, Debye):
    X=             -0.6479    Y=             -0.8600    Z=              0.0000  Tot=              1.0768
 Quadrupole moment (field-independent basis, Debye-Ang):
   XX=           -126.8531   YY=           -121.7269   ZZ=           -128.1098
   XY=             -2.7850   XZ=              0.0000   YZ=              0.0000

 Normal termination of Gaussian 09 at Tue Dec 20 03:01:04 2011.
