 Gaussian 09, Revision A.02,
 Gaussian 09:  AM64L-G09RevA.02 11-Jun-2009

 -----------------------
 # G4 scfcyc=500 scf=xqc
 -----------------------

 -----
 si7-n
 -----
 Symbolic Z-matrix:
 Charge =  0 Multiplicity = 1

 SCF Done:  E(RB3LYP) =  -2026.43935056     A.U. after   11 cycles
 SCF Done:  E(RB3LYP) =  -2026.43940522     A.U. after    7 cycles
 SCF Done:  E(RB3LYP) =  -2026.43943156     A.U. after    7 cycles
 Optimization completed.
    -- Stationary point found.
 Normal termination of Gaussian 09 at Tue Dec 20 19:04:15 2011.

 ----------------------------------------------------------
 #N Geom=AllCheck Guess=TCheck SCRF=Check B3LYP/GTBas3 Freq
 ----------------------------------------------------------

 si7-n
 -----
 Redundant internal coordinates taken from checkpoint file:
 S9L-ne-d-01.chk
 Charge =  0 Multiplicity = 1

 SCF Done:  E(RB3LYP) =  -2026.43943156     A.U. after    1 cycles

  Exact polarizability: 228.005   0.000 228.005   0.000   0.000 150.757
 Approx polarizability: 668.300   0.000 668.300   0.000   0.000 455.487

                     1                      2                      3
                    E2"                    E2"                    E1'
 Frequencies --   161.6582               161.6582               219.4603
 Red. masses --    27.9769                27.9769                27.9769
 Frc consts  --     0.4308                 0.4308                 0.7939
 IR Inten    --     0.0000                 0.0000                 0.0089

                     4                      5                      6
                    E1'                    A2"                    E2'
 Frequencies --   219.4605               219.6614               275.2245
 Red. masses --    27.9769                27.9769                27.9769
 Frc consts  --     0.7939                 0.7953                 1.2486
 IR Inten    --     0.0090                 1.1027                 0.0000

                     7                      8                      9
                    E2'                    E1"                    E1"
 Frequencies --   275.2245               324.1440               324.1447
 Red. masses --    27.9769                27.9769                27.9769
 Frc consts  --     1.2486                 1.7319                 1.7319
 IR Inten    --     0.0000                 0.0000                 0.0000

                    10                     11                     12
                    E2'                    E2'                    A1'
 Frequencies --   336.4486               336.4486               352.8862
 Red. masses --    27.9769                27.9769                27.9769
 Frc consts  --     1.8659                 1.8659                 2.0527
 IR Inten    --     0.0000                 0.0000                 0.0000

                    13                     14                     15
                    E1'                    E1'                    A1'
 Frequencies --   407.8698               407.8698               422.4932
 Red. masses --    27.9769                27.9769                27.9769
 Frc consts  --     2.7422                 2.7422                 2.9423
 IR Inten    --    14.9307                14.9282                 0.0000

 - Thermochemistry -
 -------------------
 Temperature   298.150 Kelvin.  Pressure   1.00000 Atm.
 Atom     1 has atomic number 14 and mass  27.97693

 Molecular mass:   195.83850 amu.
 Principal axes and moments of inertia in atomic units:
                           1         2         3
     Eigenvalues --  1460.497821460.497822264.93958
           X            0.76302  -0.64637   0.00000
           Y            0.64637   0.76302   0.00000
           Z            0.00000   0.00000   1.00000
 This molecule is an oblate symmetric top.
 Rotational symmetry number 10.
 Warning -- assumption of classical behavior for rotation
           may cause significant error
 Rotational temperatures (Kelvin)      0.05930     0.05930     0.03824
 Rotational constants (GHZ):           1.23570     1.23570     0.79682
 Zero-point vibrational energy      26584.9 (Joules/Mol)
                                    6.35395 (Kcal/Mol)
 Warning -- explicit consideration of  15 degrees of freedom as
           vibrations may cause significant error
 Vibrational temperatures:    232.59   232.59   315.75   315.75   316.04
          (Kelvin)            395.99   395.99   466.37   466.37   484.07
                              484.07   507.72   586.83   586.83   607.87

 Zero-point correction=                           0.010126 (Hartree/Particle)
 Thermal correction to Energy=                    0.019486
 Thermal correction to Enthalpy=                  0.020430
 Thermal correction to Gibbs Free Energy=        -0.022390
 Sum of electronic and zero-point Energies=          -2026.429306
 Sum of electronic and thermal Energies=             -2026.419946
 Sum of electronic and thermal Enthalpies=           -2026.419002
 Sum of electronic and thermal Free Energies=        -2026.461821

                     E (Thermal)             CV                S
                      KCal/Mol        Cal/Mol-Kelvin    Cal/Mol-Kelvin
 Total                   12.227             30.969             90.122
 Electronic               0.000              0.000              0.000
 Translational            0.889              2.981             41.722
 Rotational               0.889              2.981             25.383
 Vibrational             10.450             25.008             23.017
 Vibration     1          0.622              1.889              2.530
 Vibration     2          0.622              1.889              2.530
 Vibration     3          0.647              1.811              1.964
 Vibration     4          0.647              1.811              1.964
 Vibration     5          0.647              1.811              1.962
 Vibration     6          0.677              1.719              1.563
 Vibration     7          0.677              1.719              1.563
 Vibration     8          0.709              1.627              1.289
 Vibration     9          0.709              1.627              1.289
 Vibration    10          0.717              1.603              1.229
 Vibration    11          0.717              1.603              1.229
 Vibration    12          0.729              1.569              1.153
 Vibration    13          0.772              1.453              0.934
 Vibration    14          0.772              1.453              0.934
 Vibration    15          0.785              1.421              0.884

 Optimization completed.
    -- Stationary point found.
 Normal termination of Gaussian 09 at Tue Dec 20 19:05:47 2011.

 -----------------------------------------------------------------
 #N Geom=AllCheck Guess=TCheck SCRF=Check CCSD(T,E4T,FrzG4)/GTBas1
 -----------------------------------------------------------------

 si7-n
 -----
 Redundant internal coordinates taken from checkpoint file:
 S9L-ne-d-01.chk
 Charge =  0 Multiplicity = 1

 SCF Done:  E(RHF) =  -2022.27628539     A.U. after   11 cycles
 E2 =    -0.6797833535D+00 EUMP2 =    -0.20229560687480D+04
 CCSD(T)= -0.20230077388D+04
 P4SDTQ=-2023.0390278\MP4SDQ=-2022.9596116\CCSD=-2022.9483005\CCSD(T)=-
 Normal termination of Gaussian 09 at Tue Dec 20 19:07:15 2011.

 ---------------------------------------------------------
 #N Geom=AllCheck Guess=TCheck SCRF=Check MP4=FrzG4/GTBas2
 ---------------------------------------------------------

 si7-n
 -----
 Redundant internal coordinates taken from checkpoint file:
 S9L-ne-d-01.chk
 Charge =  0 Multiplicity = 1

 SCF Done:  E(RHF) =  -2022.27974007     A.U. after   10 cycles
 E2 =    -0.6850833214D+00 EUMP2 =    -0.20229648233962D+04
 Normal termination of Gaussian 09 at Tue Dec 20 19:08:09 2011.

 ---------------------------------------------------------
 #N Geom=AllCheck Guess=TCheck SCRF=Check MP4=FrzG4/GTBas3
 ---------------------------------------------------------

 si7-n
 -----
 Redundant internal coordinates taken from checkpoint file:
 S9L-ne-d-01.chk
 Charge =  0 Multiplicity = 1

 SCF Done:  E(RHF) =  -2022.33248342     A.U. after   10 cycles
 E2 =    -0.8435812133D+00 EUMP2 =    -0.20231760646285D+04
 Normal termination of Gaussian 09 at Tue Dec 20 19:12:25 2011.

 -----------------------------------------------------------
 #N Geom=AllCheck Guess=TCheck SCRF=Check MP2=Full/GTLargeXP
 -----------------------------------------------------------

 si7-n
 -----
 Redundant internal coordinates taken from checkpoint file:
 S9L-ne-d-01.chk
 Charge =  0 Multiplicity = 1

 SCF Done:  E(RHF) =  -2022.46724067     A.U. after   11 cycles
 E2 =    -0.2918401319D+01 EUMP2 =    -0.20253856419935D+04
 Normal termination of Gaussian 09 at Tue Dec 20 19:23:04 2011.
 SCF Done:  E(RHF) =  -2022.50473060     A.U. after    9 cycles
 Normal termination of Gaussian 09 at Tue Dec 20 19:24:56 2011.

                         Standard orientation:
 ---------------------------------------------------------------------
 Center     Atomic      Atomic             Coordinates (Angstroms)
 Number     Number       Type             X           Y           Z
 ---------------------------------------------------------------------
      1         14           0        0.000000    2.129337    0.000000
      2         14           0        2.025120    0.658001    0.000000
      3         14           0        1.251593   -1.722670    0.000000
      4         14           0       -1.251593   -1.722670    0.000000
      5         14           0       -2.025120    0.658001    0.000000
      6         14           0        0.000000    0.000000    1.281273
      7         14           0        0.000000    0.000000   -1.281273
 ---------------------------------------------------------------------

 SCF Done:  E(RHF) =  -2022.51160741     A.U. after    9 cycles

 The electronic state is 1-A1'.
 Alpha  occ. eigenvalues --  -68.80752 -68.80752 -68.80752 -68.80752 -68.80752
 Alpha  occ. eigenvalues --  -68.80466 -68.80466  -6.15232  -6.15217  -6.15199
 Alpha  occ. eigenvalues --   -6.15199  -6.15197  -6.15189  -6.15189  -4.25642
 Alpha  occ. eigenvalues --   -4.25612  -4.25514  -4.25514  -4.25510  -4.25510
 Alpha  occ. eigenvalues --   -4.25338  -4.25334  -4.25334  -4.25333  -4.25333
 Alpha  occ. eigenvalues --   -4.25317  -4.25317  -4.25315  -4.25311  -4.25311
 Alpha  occ. eigenvalues --   -4.25287  -4.25287  -4.25280  -4.25280  -4.25273
 Alpha  occ. eigenvalues --   -0.90289  -0.71321  -0.71321  -0.60740  -0.50217
 Alpha  occ. eigenvalues --   -0.50217  -0.48805  -0.35078  -0.35078  -0.33768
 Alpha  occ. eigenvalues --   -0.32490  -0.32490  -0.29641  -0.29641
 Alpha virt. eigenvalues --   -0.01277   0.01950   0.01993   0.01993   0.02330
 Alpha virt. eigenvalues --    0.03021   0.03021   0.03952   0.03952   0.04123
 Alpha virt. eigenvalues --    0.05040   0.05040   0.05518   0.05518   0.06720

 Mulliken atomic charges:
              1
     1  Si   0.009545
     2  Si   0.009545
     3  Si   0.009545
     4  Si   0.009545
     5  Si   0.009545
     6  Si  -0.023862
     7  Si  -0.023862
 Sum of Mulliken atomic charges =   0.00000

 Dipole moment (field-independent basis, Debye):
    X=              0.0000    Y=              0.0000    Z=              0.0000  Tot=              0.0000
 Quadrupole moment (field-independent basis, Debye-Ang):
   XX=            -98.8332   YY=            -98.8332   ZZ=            -89.1502
   XY=              0.0000   XZ=              0.0000   YZ=              0.0000

 Normal termination of Gaussian 09 at Tue Dec 20 19:36:21 2011.
