 Gaussian 09, Revision A.02,
 Gaussian 09:  AM64L-G09RevA.02 11-Jun-2009

 -----------------------
 # G4 scfcyc=500 scf=xqc
 -----------------------

 --------
 si5-an-d
 --------
 Symbolic Z-matrix:
 Charge = -1 Multiplicity = 2

 SCF Done:  E(UB3LYP) =  -1447.49077498     A.U. after   15 cycles
 SCF Done:  E(UB3LYP) =  -1447.49084370     A.U. after    9 cycles
 SCF Done:  E(UB3LYP) =  -1447.49087579     A.U. after    9 cycles
 Optimization completed.
    -- Stationary point found.
 Normal termination of Gaussian 09 at Mon Mar  5 12:05:40 2012.

 ----------------------------------------------------------
 #N Geom=AllCheck Guess=TCheck SCRF=Check B3LYP/GTBas3 Freq
 ----------------------------------------------------------

 si5-an-d
 --------
 Redundant internal coordinates taken from checkpoint file:
 S9L-ne-d-01.chk
 Charge = -1 Multiplicity = 2

 SCF Done:  E(UB3LYP) =  -1447.49087579     A.U. after    1 cycles

  Exact polarizability: 165.537   0.000 165.532   0.000   0.000 191.728
 Approx polarizability: 434.696   0.000 434.696   0.000   0.000 510.057

                     1                      2                      3
                    E'                     E'                     A1'
 Frequencies --   190.1023               190.1038               292.2771
 Red. masses --    27.9769                27.9769                27.9769
 Frc consts  --     0.5957                 0.5957                 1.4081
 IR Inten    --     1.0965                 1.0966                 0.0000

                     4                      5                      6
                    E"                     E"                     E'
 Frequencies --   339.6418               339.6438               367.1649
 Red. masses --    27.9769                27.9769                27.9769
 Frc consts  --     1.9015                 1.9015                 2.2221
 IR Inten    --     0.0000                 0.0000                 0.8824

                     7                      8                      9
                    E'                     A2"                    A1'
 Frequencies --   367.1650               438.1204               459.4413
 Red. masses --    27.9769                27.9769                27.9769
 Frc consts  --     2.2221                 3.1640                 3.4794
 IR Inten    --     0.8821                 2.7855                 0.0000

 - Thermochemistry -
 -------------------
 Temperature   298.150 Kelvin.  Pressure   1.00000 Atm.
 Atom     1 has atomic number 14 and mass  27.97693

 Molecular mass:   139.88464 amu.
 Principal axes and moments of inertia in atomic units:
                           1         2         3
     Eigenvalues --   759.19743 975.45042 975.45042
           X            0.00000   0.00000   1.00000
           Y            0.00000   1.00000   0.00000
           Z            1.00000   0.00000   0.00000
 This molecule is a prolate symmetric top.
 Rotational symmetry number  6.
 Warning -- assumption of classical behavior for rotation
           may cause significant error
 Rotational temperatures (Kelvin)      0.11409     0.08879     0.08879
 Rotational constants (GHZ):           2.37717     1.85016     1.85016
 Zero-point vibrational energy      17846.3 (Joules/Mol)
                                    4.26536 (Kcal/Mol)
 Warning -- explicit consideration of   9 degrees of freedom as
           vibrations may cause significant error
 Vibrational temperatures:    273.51   273.52   420.52   488.67   488.67
          (Kelvin)            528.27   528.27   630.36   661.03

 Zero-point correction=                           0.006797 (Hartree/Particle)
 Thermal correction to Energy=                    0.013174
 Thermal correction to Enthalpy=                  0.014118
 Thermal correction to Gibbs Free Energy=        -0.023290
 Sum of electronic and zero-point Energies=          -1447.484079
 Sum of electronic and thermal Energies=             -1447.477702
 Sum of electronic and thermal Enthalpies=           -1447.476758
 Sum of electronic and thermal Free Energies=        -1447.514166

                     E (Thermal)             CV                S
                      KCal/Mol        Cal/Mol-Kelvin    Cal/Mol-Kelvin
 Total                    8.267             20.356             78.731
 Electronic               0.000              0.000              1.377
 Translational            0.889              2.981             40.719
 Rotational               0.889              2.981             24.510
 Vibrational              6.489             14.394             12.126
 Vibration     1          0.633              1.854              2.227
 Vibration     2          0.633              1.854              2.227
 Vibration     3          0.688              1.688              1.461
 Vibration     4          0.720              1.596              1.214
 Vibration     5          0.720              1.596              1.214
 Vibration     6          0.740              1.540              1.092
 Vibration     7          0.740              1.540              1.092
 Vibration     8          0.798              1.387              0.833
 Vibration     9          0.817              1.340              0.768

 Optimization completed.
    -- Stationary point found.
 Normal termination of Gaussian 09 at Mon Mar  5 12:06:44 2012.

 -----------------------------------------------------------------
 #N Geom=AllCheck Guess=TCheck SCRF=Check CCSD(T,E4T,FrzG4)/GTBas1
 -----------------------------------------------------------------

 si5-an-d
 --------
 Redundant internal coordinates taken from checkpoint file:
 S9L-ne-d-01.chk
 Charge = -1 Multiplicity = 2

 SCF Done:  E(UHF) =  -1444.51143164     A.U. after   16 cycles
 E2 =    -0.4621531510D+00 EUMP2 =    -0.14449735847934D+04
 CCSD(T)= -0.14450253160D+04
 44.986072\CCSD(T)=-1445.025316\S2=0.789382\S2-1=0.761525\S2A=0.750454\
 Normal termination of Gaussian 09 at Mon Mar  5 12:07:29 2012.

 ---------------------------------------------------------
 #N Geom=AllCheck Guess=TCheck SCRF=Check MP4=FrzG4/GTBas2
 ---------------------------------------------------------

 si5-an-d
 --------
 Redundant internal coordinates taken from checkpoint file:
 S9L-ne-d-01.chk
 Charge = -1 Multiplicity = 2

 SCF Done:  E(UHF) =  -1444.51547785     A.U. after   15 cycles
 E2 =    -0.4695614800D+00 EUMP2 =    -0.14449850393339D+04
 Normal termination of Gaussian 09 at Mon Mar  5 12:07:51 2012.

 ---------------------------------------------------------
 #N Geom=AllCheck Guess=TCheck SCRF=Check MP4=FrzG4/GTBas3
 ---------------------------------------------------------

 si5-an-d
 --------
 Redundant internal coordinates taken from checkpoint file:
 S9L-ne-d-01.chk
 Charge = -1 Multiplicity = 2

 SCF Done:  E(UHF) =  -1444.54654966     A.U. after   16 cycles
 E2 =    -0.5828239329D+00 EUMP2 =    -0.14451293735909D+04
 Normal termination of Gaussian 09 at Mon Mar  5 12:09:30 2012.

 -----------------------------------------------------------
 #N Geom=AllCheck Guess=TCheck SCRF=Check MP2=Full/GTLargeXP
 -----------------------------------------------------------

 si5-an-d
 --------
 Redundant internal coordinates taken from checkpoint file:
 S9L-ne-d-01.chk
 Charge = -1 Multiplicity = 2

 SCF Done:  E(UHF) =  -1444.64440194     A.U. after   16 cycles
 E2 =    -0.2066432152D+01 EUMP2 =    -0.14467108340950D+04
 Normal termination of Gaussian 09 at Mon Mar  5 12:18:02 2012.
 SCF Done:  E(UHF) =  -1444.67238739     A.U. after   13 cycles
 Normal termination of Gaussian 09 at Mon Mar  5 12:19:36 2012.

                         Standard orientation:
 ---------------------------------------------------------------------
 Center     Atomic      Atomic             Coordinates (Angstroms)
 Number     Number       Type             X           Y           Z
 ---------------------------------------------------------------------
      1         14           0        0.000000    1.591541    0.000000
      2         14           0        1.378315   -0.795771    0.000000
      3         14           0       -1.378315   -0.795771    0.000000
      4         14           0        0.000000    0.000000    1.726852
      5         14           0        0.000000    0.000000   -1.726852
 ---------------------------------------------------------------------

 SCF Done:  E(UHF) =  -1444.67681340     A.U. after   14 cycles

 The electronic state is 2-A2".
 Alpha  occ. eigenvalues --  -68.62243 -68.62243 -68.61938 -68.61938 -68.61938
 Alpha  occ. eigenvalues --   -5.96940  -5.96940  -5.96470  -5.96464  -5.96464
 Alpha  occ. eigenvalues --   -4.07806  -4.07804  -4.07116  -4.07116  -4.07114
 Alpha  occ. eigenvalues --   -4.07114  -4.06793  -4.06790  -4.06790  -4.06679
 Alpha  occ. eigenvalues --   -4.06679  -4.06673  -4.06664  -4.06650  -4.06650
 Alpha  occ. eigenvalues --   -0.67510  -0.48448  -0.40986  -0.40986  -0.28016
 Alpha  occ. eigenvalues --   -0.18551  -0.16781  -0.16781  -0.14723  -0.11611
 Alpha  occ. eigenvalues --   -0.11611
 Alpha virt. eigenvalues --    0.11574   0.11616   0.11616   0.11711   0.12624
 Alpha virt. eigenvalues --    0.14892   0.14892   0.14922   0.14922   0.15635
 Alpha virt. eigenvalues --    0.15635   0.15880   0.16144   0.16296   0.16296

  Beta  occ. eigenvalues --  -68.61962 -68.61962 -68.61894 -68.61894 -68.61894
  Beta  occ. eigenvalues --   -5.96644  -5.96642  -5.96425  -5.96421  -5.96421
  Beta  occ. eigenvalues --   -4.06980  -4.06980  -4.06980  -4.06980  -4.06679
  Beta  occ. eigenvalues --   -4.06679  -4.06672  -4.06667  -4.06643  -4.06643
  Beta  occ. eigenvalues --   -4.06509  -4.06497  -4.06497  -4.06337  -4.06332
  Beta  occ. eigenvalues --   -0.65765  -0.44705  -0.40341  -0.40341  -0.19308
  Beta  occ. eigenvalues --   -0.16943  -0.15701  -0.15701  -0.11621  -0.11621
  Beta virt. eigenvalues --    0.10833   0.11629   0.11629   0.11767   0.12640
  Beta virt. eigenvalues --    0.13679   0.14943   0.14943   0.14951   0.14951
  Beta virt. eigenvalues --    0.15698   0.15698   0.15873   0.16271   0.16294

 Mulliken atomic charges:
              1
     1  Si  -0.187802
     2  Si  -0.187802
     3  Si  -0.187802
     4  Si  -0.218297
     5  Si  -0.218297
 Sum of Mulliken atomic charges =  -1.00000

 Dipole moment (field-independent basis, Debye):
    X=              0.0000    Y=              0.0000    Z=              0.0000  Tot=              0.0000
 Quadrupole moment (field-independent basis, Debye-Ang):
   XX=            -84.4660   YY=            -84.4660   ZZ=            -83.0967
   XY=              0.0000   XZ=              0.0000   YZ=              0.0000

 Normal termination of Gaussian 09 at Mon Mar  5 12:30:24 2012.
