 Gaussian 09, Revision A.02,
 Gaussian 09:  AM64L-G09RevA.02 11-Jun-2009

 -----------------------
 # G4 scfcyc=500 scf=xqc
 -----------------------

 -----
 si8-a
 -----
 Symbolic Z-matrix:
 Charge = -1 Multiplicity = 2

 SCF Done:  E(UB3LYP) =  -2315.99522421     A.U. after   19 cycles
 SCF Done:  E(UB3LYP) =  -2315.99529555     A.U. after   12 cycles
 SCF Done:  E(UB3LYP) =  -2315.99535302     A.U. after   12 cycles
 SCF Done:  E(UB3LYP) =  -2315.99536113     A.U. after   11 cycles
 SCF Done:  E(UB3LYP) =  -2315.99536133     A.U. after   11 cycles
 SCF Done:  E(UB3LYP) =  -2315.99536165     A.U. after   10 cycles
 Optimization completed.
    -- Stationary point found.
 Normal termination of Gaussian 09 at Wed Dec 21 05:28:28 2011.

 ----------------------------------------------------------
 #N Geom=AllCheck Guess=TCheck SCRF=Check B3LYP/GTBas3 Freq
 ----------------------------------------------------------

 si8-a
 -----
 Redundant internal coordinates taken from checkpoint file:
 S9L-ne-d-01.chk
 Charge = -1 Multiplicity = 2

 SCF Done:  E(UB3LYP) =  -2315.99536165     A.U. after    1 cycles

  Exact polarizability: 248.007   0.000 263.153   0.000   0.000 260.719
 Approx polarizability: 713.352   0.000 769.281   0.000   0.000 732.626

                     1                      2                      3
                    B2                     A1                     A2
 Frequencies --     5.6940               130.7383               134.7742
 Red. masses --    27.9769                27.9769                27.9769
 Frc consts  --     0.0005                 0.2817                 0.2994
 IR Inten    --     3.5024                 0.0079                 0.0000

                     4                      5                      6
                    B1                     A1                     B1
 Frequencies --   213.4735               232.0197               244.6263
 Red. masses --    27.9769                27.9769                27.9769
 Frc consts  --     0.7512                 0.8874                 0.9864
 IR Inten    --     0.1712                 0.0748                 1.0248

                     7                      8                      9
                    A1                     B1                     B2
 Frequencies --   247.9752               261.3460               263.2233
 Red. masses --    27.9769                27.9769                27.9769
 Frc consts  --     1.0136                 1.1259                 1.1421
 IR Inten    --     0.1308                 0.8114                 1.4311

                    10                     11                     12
                    A2                     A1                     A1
 Frequencies --   276.5248               282.5160               315.2064
 Red. masses --    27.9769                27.9769                27.9769
 Frc consts  --     1.2604                 1.3156                 1.6377
 IR Inten    --     0.0000                 0.0677                 0.3279

                    13                     14                     15
                    A2                     A1                     B2
 Frequencies --   332.8416               382.7093               385.7987
 Red. masses --    27.9769                27.9769                27.9769
 Frc consts  --     1.8261                 2.4143                 2.4534
 IR Inten    --     0.0000                 0.0001                 0.0012

                    16                     17                     18
                    B2                     B1                     A1
 Frequencies --   418.6041               420.5748               448.2193
 Red. masses --    27.9769                27.9769                27.9769
 Frc consts  --     2.8884                 2.9157                 3.3115
 IR Inten    --     0.9174                 0.1405                 0.0635

 - Thermochemistry -
 -------------------
 Temperature   298.150 Kelvin.  Pressure   1.00000 Atm.
 Atom     1 has atomic number 14 and mass  27.97693

 Molecular mass:   223.81543 amu.
 Principal axes and moments of inertia in atomic units:
                           1         2         3
     Eigenvalues --  2219.579312231.528122410.85843
           X            0.00000   0.00000   1.00000
           Y            0.00000   1.00000   0.00000
           Z            1.00000   0.00000   0.00000
 This molecule is an asymmetric top.
 Rotational symmetry number  2.
 Warning -- assumption of classical behavior for rotation
           may cause significant error
 Rotational temperatures (Kelvin)      0.03902     0.03881     0.03593
 Rotational constants (GHZ):           0.81310     0.80875     0.74859
 Zero-point vibrational energy      29887.9 (Joules/Mol)
                                    7.14338 (Kcal/Mol)
 Warning -- explicit consideration of  18 degrees of freedom as
           vibrations may cause significant error
 Vibrational temperatures:      8.19   188.10   193.91   307.14   333.82
          (Kelvin)            351.96   356.78   376.02   378.72   397.86
                              406.48   453.51   478.88   550.63   555.08
                              602.28   605.11   644.89

 Zero-point correction=                           0.011384 (Hartree/Particle)
 Thermal correction to Energy=                    0.022642
 Thermal correction to Enthalpy=                  0.023586
 Thermal correction to Gibbs Free Energy=        -0.028152
 Sum of electronic and zero-point Energies=          -2315.983978
 Sum of electronic and thermal Energies=             -2315.972720
 Sum of electronic and thermal Enthalpies=           -2315.971776
 Sum of electronic and thermal Free Energies=        -2316.023513

                     E (Thermal)             CV                S
                      KCal/Mol        Cal/Mol-Kelvin    Cal/Mol-Kelvin
 Total                   14.208             36.329            108.891
 Electronic               0.000              0.000              1.377
 Translational            0.889              2.981             42.120
 Rotational               0.889              2.981             29.480
 Vibrational             12.430             30.367             35.913
 Vibration     1          0.593              1.987              9.130
 Vibration     2          0.612              1.923              2.935
 Vibration     3          0.613              1.919              2.877
 Vibration     4          0.644              1.820              2.014
 Vibration     5          0.653              1.792              1.863
 Vibration     6          0.660              1.772              1.769
 Vibration     7          0.662              1.766              1.745
 Vibration     8          0.669              1.744              1.653
 Vibration     9          0.670              1.740              1.640
 Vibration    10          0.678              1.717              1.555
 Vibration    11          0.682              1.706              1.518
 Vibration    12          0.703              1.645              1.335
 Vibration    13          0.715              1.610              1.246
 Vibration    14          0.752              1.507              1.028
 Vibration    15          0.754              1.501              1.016
 Vibration    16          0.781              1.430              0.897
 Vibration    17          0.783              1.426              0.890
 Vibration    18          0.807              1.365              0.801

 Optimization completed.
    -- Stationary point found.
 Normal termination of Gaussian 09 at Wed Dec 21 05:34:18 2011.

 -----------------------------------------------------------------
 #N Geom=AllCheck Guess=TCheck SCRF=Check CCSD(T,E4T,FrzG4)/GTBas1
 -----------------------------------------------------------------

 si8-a
 -----
 Redundant internal coordinates taken from checkpoint file:
 S9L-ne-d-01.chk
 Charge = -1 Multiplicity = 2

 SCF Done:  E(UHF) =  -2311.23836860     A.U. after   23 cycles
 E2 =    -0.7541989379D+00 EUMP2 =    -0.23119925675382D+04
 CCSD(T)= -0.23120657554D+04
 99\MP4SDQ=-2312.0084171\CCSD=-2311.9992339\CCSD(T)=-2312.0657554\S2=0.
 Normal termination of Gaussian 09 at Wed Dec 21 05:46:37 2011.

 ---------------------------------------------------------
 #N Geom=AllCheck Guess=TCheck SCRF=Check MP4=FrzG4/GTBas2
 ---------------------------------------------------------

 si8-a
 -----
 Redundant internal coordinates taken from checkpoint file:
 S9L-ne-d-01.chk
 Charge = -1 Multiplicity = 2

 SCF Done:  E(UHF) =  -2311.24436227     A.U. after   20 cycles
 E2 =    -0.7647129430D+00 EUMP2 =    -0.23120090752081D+04
 Normal termination of Gaussian 09 at Wed Dec 21 05:51:11 2011.

 ---------------------------------------------------------
 #N Geom=AllCheck Guess=TCheck SCRF=Check MP4=FrzG4/GTBas3
 ---------------------------------------------------------

 si8-a
 -----
 Redundant internal coordinates taken from checkpoint file:
 S9L-ne-d-01.chk
 Charge = -1 Multiplicity = 2

 SCF Done:  E(UHF) =  -2311.28910172     A.U. after   23 cycles
 E2 =    -0.9534831500D+00 EUMP2 =    -0.23122425848728D+04
 Normal termination of Gaussian 09 at Wed Dec 21 06:12:28 2011.

 -----------------------------------------------------------
 #N Geom=AllCheck Guess=TCheck SCRF=Check MP2=Full/GTLargeXP
 -----------------------------------------------------------

 si8-a
 -----
 Redundant internal coordinates taken from checkpoint file:
 S9L-ne-d-01.chk
 Charge = -1 Multiplicity = 2

 SCF Done:  E(UHF) =  -2311.44411128     A.U. after   19 cycles
 E2 =    -0.3327278382D+01 EUMP2 =    -0.23147713896630D+04
 Normal termination of Gaussian 09 at Wed Dec 21 07:10:35 2011.
 SCF Done:  E(UHF) =  -2311.48758518     A.U. after   16 cycles
 Normal termination of Gaussian 09 at Wed Dec 21 07:29:45 2011.

                         Standard orientation:
 ---------------------------------------------------------------------
 Center     Atomic      Atomic             Coordinates (Angstroms)
 Number     Number       Type             X           Y           Z
 ---------------------------------------------------------------------
      1         14           0        0.000000    1.994258   -1.401064
      2         14           0       -1.846426    0.000000    1.492853
      3         14           0        1.302329    0.000000   -1.012028
      4         14           0        0.000000   -1.423295    0.920238
      5         14           0        0.000000    1.423295    0.920238
      6         14           0       -1.302329    0.000000   -1.012028
      7         14           0        0.000000   -1.994258   -1.401064
      8         14           0        1.846426    0.000000    1.492853
 ---------------------------------------------------------------------

 SCF Done:  E(UHF) =  -2311.49520120     A.U. after   15 cycles

 The electronic state is 2-B1.
 Alpha  occ. eigenvalues --  -68.65390 -68.65390 -68.65118 -68.65118 -68.64489
 Alpha  occ. eigenvalues --  -68.64489 -68.63785 -68.63785  -5.99939  -5.99933
 Alpha  occ. eigenvalues --   -5.99732  -5.99729  -5.99038  -5.99037  -5.98340
 Alpha  occ. eigenvalues --   -5.98339  -4.10481  -4.10474  -4.10278  -4.10260
 Alpha  occ. eigenvalues --   -4.10190  -4.10188  -4.10165  -4.10157  -4.10152
 Alpha  occ. eigenvalues --   -4.10151  -4.10010  -4.10007  -4.09629  -4.09629
 Alpha  occ. eigenvalues --   -4.09181  -4.09181  -4.09173  -4.09173  -4.08674
 Alpha  occ. eigenvalues --   -4.08674  -4.08551  -4.08550  -4.08504  -4.08504
 Alpha  occ. eigenvalues --   -0.73453  -0.57071  -0.56484  -0.55326  -0.38011
 Alpha  occ. eigenvalues --   -0.37431  -0.37041  -0.31300  -0.26704  -0.25709
 Alpha  occ. eigenvalues --   -0.17236  -0.17069  -0.16424  -0.14785  -0.14306
 Alpha  occ. eigenvalues --   -0.14289  -0.13764
 Alpha virt. eigenvalues --    0.10432   0.11065   0.11083   0.11101   0.11523
 Alpha virt. eigenvalues --    0.11538   0.11564   0.12777   0.13010   0.13206
 Alpha virt. eigenvalues --    0.13924   0.14260   0.14751   0.15246   0.15260

  Beta  occ. eigenvalues --  -68.65376 -68.65376 -68.65096 -68.65096 -68.64306
  Beta  occ. eigenvalues --  -68.64306 -68.63740 -68.63740  -5.99951  -5.99944
  Beta  occ. eigenvalues --   -5.99722  -5.99719  -5.98833  -5.98833  -5.98287
  Beta  occ. eigenvalues --   -5.98287  -4.10425  -4.10407  -4.10247  -4.10245
  Beta  occ. eigenvalues --   -4.10173  -4.10167  -4.10041  -4.10033  -4.10030
  Beta  occ. eigenvalues --   -4.10024  -4.09927  -4.09927  -4.09076  -4.09076
  Beta  occ. eigenvalues --   -4.09061  -4.09061  -4.08700  -4.08700  -4.08549
  Beta  occ. eigenvalues --   -4.08549  -4.08509  -4.08508  -4.08390  -4.08390
  Beta  occ. eigenvalues --   -0.72555  -0.55929  -0.55567  -0.52078  -0.37190
  Beta  occ. eigenvalues --   -0.35822  -0.34980  -0.30227  -0.24298  -0.21609
  Beta  occ. eigenvalues --   -0.17174  -0.16751  -0.15468  -0.15103  -0.14483
  Beta  occ. eigenvalues --   -0.12312
  Beta virt. eigenvalues --    0.09765   0.10448   0.11065   0.11108   0.11141
  Beta virt. eigenvalues --    0.11533   0.11550   0.11571   0.12796   0.13011
  Beta virt. eigenvalues --    0.13207   0.14339   0.14700   0.14818   0.15249

 Mulliken atomic charges:
              1
     1  Si  -0.306098
     2  Si  -0.275867
     3  Si   0.014501
     4  Si   0.067464
     5  Si   0.067464
     6  Si   0.014501
     7  Si  -0.306098
     8  Si  -0.275867
 Sum of Mulliken atomic charges =  -1.00000

 Dipole moment (field-independent basis, Debye):
    X=              0.0000    Y=              0.0000    Z=              0.3717  Tot=              0.3717
 Quadrupole moment (field-independent basis, Debye-Ang):
   XX=           -129.8264   YY=           -130.7164   ZZ=           -131.5802
   XY=              0.0000   XZ=              0.0000   YZ=              0.0000

 Normal termination of Gaussian 09 at Wed Dec 21 09:24:33 2011.
