 Gaussian 09, Revision A.02,
 Gaussian 09:  AM64L-G09RevA.02 11-Jun-2009

 -----------------------
 # G4 scfcyc=500 scf=xqc
 -----------------------

 ------
 si13-n
 ------
 Symbolic Z-matrix:
 Charge =  0 Multiplicity = 1

 SCF Done:  E(RB3LYP) =  -3763.40630696     A.U. after   17 cycles
 SCF Done:  E(RB3LYP) =  -3763.40644557     A.U. after   10 cycles
 SCF Done:  E(RB3LYP) =  -3763.40651288     A.U. after   11 cycles
 SCF Done:  E(RB3LYP) =  -3763.40652928     A.U. after   10 cycles
 SCF Done:  E(RB3LYP) =  -3763.40653472     A.U. after   10 cycles
 SCF Done:  E(RB3LYP) =  -3763.40653501     A.U. after    9 cycles
 Optimization completed.
    -- Stationary point found.
 Normal termination of Gaussian 09 at Mon Jan 21 04:15:06 2013.

 ----------------------------------------------------------
 #N Geom=AllCheck Guess=TCheck SCRF=Check B3LYP/GTBas3 Freq
 ----------------------------------------------------------

 si13-n
 ------
 Redundant internal coordinates taken from checkpoint file:
 S9L-ne-d-01.chk
 Charge =  0 Multiplicity = 1

 SCF Done:  E(RB3LYP) =  -3763.40653501     A.U. after    1 cycles

  Exact polarizability: 390.314   0.000 450.114   0.000   0.000 307.539
 Approx polarizability:1345.865   0.0001421.306   0.000   0.0001083.921

                     1                      2                      3
                    A1                     B1                     A2
 Frequencies --   104.5138               112.1233               154.3974
 Red. masses --    27.9769                27.9769                27.9769
 Frc consts  --     0.1801                 0.2072                 0.3929
 IR Inten    --     0.4054                 0.0311                 0.0000

                     4                      5                      6
                    B1                     A2                     B2
 Frequencies --   160.5056               166.0441               170.9020
 Red. masses --    27.9769                27.9769                27.9769
 Frc consts  --     0.4246                 0.4545                 0.4814
 IR Inten    --     0.0312                 0.0000                 0.5400

                     7                      8                      9
                    A1                     A1                     A2
 Frequencies --   179.8813               184.8154               185.7861
 Red. masses --    27.9769                27.9769                27.9769
 Frc consts  --     0.5334                 0.5630                 0.5690
 IR Inten    --     0.0034                 1.8340                 0.0000

                    10                     11                     12
                    B2                     A1                     B1
 Frequencies --   201.2903               202.6078               204.6855
 Red. masses --    27.9769                27.9769                27.9769
 Frc consts  --     0.6679                 0.6766                 0.6906
 IR Inten    --     0.0182                 0.0586                 2.2424

                    13                     14                     15
                    B2                     B1                     B2
 Frequencies --   216.0427               218.0421               228.6811
 Red. masses --    27.9769                27.9769                27.9769
 Frc consts  --     0.7694                 0.7837                 0.8620
 IR Inten    --     0.2691                 0.1944                 3.3528

                    16                     17                     18
                    A2                     A1                     B1
 Frequencies --   245.4175               247.9849               258.1876
 Red. masses --    27.9769                27.9769                27.9769
 Frc consts  --     0.9928                 1.0137                 1.0988
 IR Inten    --     0.0000                 0.4009                 0.6588

                    19                     20                     21
                    B2                     A1                     B1
 Frequencies --   287.4852               291.4091               313.7103
 Red. masses --    27.9769                27.9769                27.9769
 Frc consts  --     1.3623                 1.3998                 1.6222
 IR Inten    --     2.2512                 0.0313                 0.7335

                    22                     23                     24
                    A1                     B2                     A2
 Frequencies --   317.3973               346.7032               374.4602
 Red. masses --    27.9769                27.9769                27.9769
 Frc consts  --     1.6606                 1.9814                 2.3113
 IR Inten    --     1.1875                 0.2840                 0.0000

                    25                     26                     27
                    A1                     A2                     A1
 Frequencies --   383.7331               387.4502               394.7831
 Red. masses --    27.9769                27.9769                27.9769
 Frc consts  --     2.4272                 2.4745                 2.5690
 IR Inten    --     2.0713                 0.0000                 2.2973

                    28                     29                     30
                    B1                     B2                     B1
 Frequencies --   395.9522               398.6626               459.6530
 Red. masses --    27.9769                27.9769                27.9769
 Frc consts  --     2.5843                 2.6198                 3.4827
 IR Inten    --     3.9829                 0.1459                 4.0632

                    31                     32                     33
                    B2                     A1                     A1
 Frequencies --   462.8096               469.0239               480.1745
 Red. masses --    27.9769                27.9769                27.9769
 Frc consts  --     3.5307                 3.6261                 3.8006
 IR Inten    --    21.4872                 1.4868                 7.5279

 - Thermochemistry -
 -------------------
 Temperature   298.150 Kelvin.  Pressure   1.00000 Atm.
 Atom     1 has atomic number 14 and mass  27.97693

 Molecular mass:   363.70007 amu.
 Principal axes and moments of inertia in atomic units:
                           1         2         3
     Eigenvalues --  4655.445295776.810657143.22628
           X            0.00000   1.00000   0.00000
           Y            1.00000   0.00000   0.00000
           Z            0.00000   0.00000   1.00000
 This molecule is an asymmetric top.
 Rotational symmetry number  2.
 Warning -- assumption of classical behavior for rotation
           may cause significant error
 Rotational temperatures (Kelvin)      0.01860     0.01499     0.01213
 Rotational constants (GHZ):           0.38766     0.31241     0.25265
 Zero-point vibrational energy      55060.0 (Joules/Mol)
                                   13.15966 (Kcal/Mol)
 Warning -- explicit consideration of  33 degrees of freedom as
           vibrations may cause significant error
 Vibrational temperatures:    150.37   161.32   222.14   230.93   238.90
          (Kelvin)            245.89   258.81   265.91   267.30   289.61
                              291.51   294.50   310.84   313.71   329.02
                              353.10   356.79   371.47   413.63   419.27
                              451.36   456.66   498.83   538.76   552.11
                              557.45   568.00   569.69   573.59   661.34
                              665.88   674.82   690.86

 Zero-point correction=                           0.020971 (Hartree/Particle)
 Thermal correction to Energy=                    0.039151
 Thermal correction to Enthalpy=                  0.040095
 Thermal correction to Gibbs Free Energy=        -0.022866
 Sum of electronic and zero-point Energies=          -3763.385564
 Sum of electronic and thermal Energies=             -3763.367384
 Sum of electronic and thermal Enthalpies=           -3763.366440
 Sum of electronic and thermal Free Energies=        -3763.429401

                     E (Thermal)             CV                S
                      KCal/Mol        Cal/Mol-Kelvin    Cal/Mol-Kelvin
 Total                   24.567             61.706            132.512
 Electronic               0.000              0.000              0.000
 Translational            0.889              2.981             43.567
 Rotational               0.889              2.981             32.241
 Vibrational             22.790             55.744             56.705
 Vibration     1          0.605              1.946              3.368
 Vibration     2          0.607              1.939              3.232
 Vibration     3          0.620              1.898              2.617
 Vibration     4          0.622              1.891              2.544
 Vibration     5          0.624              1.884              2.480
 Vibration     6          0.626              1.878              2.426
 Vibration     7          0.629              1.867              2.330
 Vibration     8          0.631              1.861              2.279
 Vibration     9          0.632              1.859              2.269
 Vibration    10          0.638              1.838              2.121
 Vibration    11          0.639              1.836              2.109
 Vibration    12          0.640              1.833              2.091
 Vibration    13          0.645              1.817              1.992
 Vibration    14          0.646              1.814              1.975
 Vibration    15          0.651              1.797              1.889
 Vibration    16          0.660              1.770              1.763
 Vibration    17          0.662              1.766              1.745
 Vibration    18          0.667              1.749              1.674
 Vibration    19          0.685              1.697              1.489
 Vibration    20          0.687              1.690              1.466
 Vibration    21          0.702              1.648              1.343
 Vibration    22          0.704              1.640              1.323
 Vibration    23          0.725              1.582              1.181
 Vibration    24          0.746              1.524              1.061
 Vibration    25          0.753              1.505              1.024
 Vibration    26          0.756              1.497              1.010
 Vibration    27          0.762              1.481              0.982
 Vibration    28          0.763              1.479              0.978
 Vibration    29          0.765              1.473              0.968
 Vibration    30          0.818              1.340              0.767
 Vibration    31          0.820              1.333              0.758
 Vibration    32          0.826              1.319              0.740
 Vibration    33          0.837              1.294              0.710

 Optimization completed.
    -- Stationary point found.
 Normal termination of Gaussian 09 at Mon Jan 21 04:25:37 2013.

 -----------------------------------------------------------------
 #N Geom=AllCheck Guess=TCheck SCRF=Check CCSD(T,E4T,FrzG4)/GTBas1
 -----------------------------------------------------------------

 si13-n
 ------
 Redundant internal coordinates taken from checkpoint file:
 S9L-ne-d-01.chk
 Charge =  0 Multiplicity = 1

 SCF Done:  E(RHF) =  -3755.68265696     A.U. after   17 cycles
 E2 =    -0.1277767569D+01 EUMP2 =    -0.37569604245258D+04
 CCSD(T)= -0.37570513416D+04
 08\MP4SDQ=-3756.9667754\CCSD=-3756.9324841\CCSD(T)=-3757.0513416\RMSD=
 Normal termination of Gaussian 09 at Mon Jan 21 04:53:53 2013.

 ---------------------------------------------------------
 #N Geom=AllCheck Guess=TCheck SCRF=Check MP4=FrzG4/GTBas2
 ---------------------------------------------------------

 si13-n
 ------
 Redundant internal coordinates taken from checkpoint file:
 S9L-ne-d-01.chk
 Charge =  0 Multiplicity = 1

 SCF Done:  E(RHF) =  -3755.69306351     A.U. after   16 cycles
 E2 =    -0.1297913164D+01 EUMP2 =    -0.37569909766790D+04
 Normal termination of Gaussian 09 at Mon Jan 21 05:07:17 2013.

 ---------------------------------------------------------
 #N Geom=AllCheck Guess=TCheck SCRF=Check MP4=FrzG4/GTBas3
 ---------------------------------------------------------

 si13-n
 ------
 Redundant internal coordinates taken from checkpoint file:
 S9L-ne-d-01.chk
 Charge =  0 Multiplicity = 1

 SCF Done:  E(RHF) =  -3755.76614456     A.U. after   15 cycles
 E2 =    -0.1606697011D+01 EUMP2 =    -0.37573728415680D+04
 Normal termination of Gaussian 09 at Mon Jan 21 06:16:26 2013.

 -----------------------------------------------------------
 #N Geom=AllCheck Guess=TCheck SCRF=Check MP2=Full/GTLargeXP
 -----------------------------------------------------------

 si13-n
 ------
 Redundant internal coordinates taken from checkpoint file:
 S9L-ne-d-01.chk
 Charge =  0 Multiplicity = 1

 SCF Done:  E(RHF) =  -3756.01584055     A.U. after   13 cycles
 E2 =    -0.5466099850D+01 EUMP2 =    -0.37614819403954D+04
 Normal termination of Gaussian 09 at Mon Jan 21 07:55:43 2013.
 SCF Done:  E(RHF) =  -3756.08548468     A.U. after   13 cycles
 Normal termination of Gaussian 09 at Mon Jan 21 08:19:57 2013.

                         Standard orientation:
 ---------------------------------------------------------------------
 Center     Atomic      Atomic             Coordinates (Angstroms)
 Number     Number       Type             X           Y           Z
 ---------------------------------------------------------------------
      1         14           0        0.000000    1.752989   -1.568181
      2         14           0        0.000000    3.567337    0.077118
      3         14           0       -1.216178    1.562332    0.711310
      4         14           0       -1.613427    0.000000   -1.430301
      5         14           0       -1.216178   -1.562332    0.711310
      6         14           0        0.000000   -3.567337    0.077118
      7         14           0        1.216178   -1.562332    0.711310
      8         14           0        0.000000    0.000000    2.269270
      9         14           0        1.216178    1.562332    0.711310
     10         14           0        1.613427    0.000000   -1.430301
     11         14           0        0.000000   -1.752989   -1.568181
     12         14           0       -3.083387    0.000000    0.364110
     13         14           0        3.083387    0.000000    0.364110
 ---------------------------------------------------------------------

 SCF Done:  E(RHF) =  -3756.09878275     A.U. after   16 cycles

 The electronic state is 1-A1.
 Alpha  occ. eigenvalues --  -68.81570 -68.81570 -68.81570 -68.81570 -68.81035
 Alpha  occ. eigenvalues --  -68.81035 -68.80549 -68.80549 -68.79638 -68.79638
 Alpha  occ. eigenvalues --  -68.79588 -68.79588 -68.79578  -6.16137  -6.16136
 Alpha  occ. eigenvalues --   -6.16127  -6.16126  -6.15465  -6.15465  -6.15168
 Alpha  occ. eigenvalues --   -6.15167  -6.14276  -6.14276  -6.14132  -6.13989
 Alpha  occ. eigenvalues --   -6.13989  -4.26602  -4.26602  -4.26589  -4.26589
 Alpha  occ. eigenvalues --   -4.26555  -4.26555  -4.26521  -4.26521  -4.26460
 Alpha  occ. eigenvalues --   -4.26457  -4.26451  -4.26448  -4.25659  -4.25659
 Alpha  occ. eigenvalues --   -4.25625  -4.25625  -4.25603  -4.25603  -4.25599
 Alpha  occ. eigenvalues --   -4.25599  -4.25539  -4.25538  -4.25507  -4.25505
 Alpha  occ. eigenvalues --   -4.24738  -4.24738  -4.24645  -4.24645  -4.24613
 Alpha  occ. eigenvalues --   -4.24613  -4.24329  -4.24317  -4.24298  -4.24126
 Alpha  occ. eigenvalues --   -4.24126  -4.24107  -4.24107  -4.24105  -4.24105
 Alpha  occ. eigenvalues --   -0.90307  -0.82219  -0.79195  -0.74638  -0.71414
 Alpha  occ. eigenvalues --   -0.63233  -0.60041  -0.58764  -0.56911  -0.55232
 Alpha  occ. eigenvalues --   -0.49626  -0.48506  -0.42899  -0.40097  -0.39280
 Alpha  occ. eigenvalues --   -0.37291  -0.36490  -0.36110  -0.34971  -0.31966
 Alpha  occ. eigenvalues --   -0.30876  -0.30450  -0.30015  -0.29875  -0.26949
 Alpha  occ. eigenvalues --   -0.26023
 Alpha virt. eigenvalues --   -0.02103  -0.02008  -0.01276   0.00418   0.01747
 Alpha virt. eigenvalues --    0.02366   0.02501   0.02767   0.02855   0.03021
 Alpha virt. eigenvalues --    0.03135   0.03880   0.04288   0.04449   0.04636

 Mulliken atomic charges:
              1
     1  Si  -0.148768
     2  Si  -0.071706
     3  Si   0.186236
     4  Si   0.085028
     5  Si   0.186236
     6  Si  -0.071706
     7  Si   0.186236
     8  Si  -0.276383
     9  Si   0.186236
    10  Si   0.085028
    11  Si  -0.148768
    12  Si  -0.098835
    13  Si  -0.098835
 Sum of Mulliken atomic charges =   0.00000

 Dipole moment (field-independent basis, Debye):
    X=              0.0000    Y=              0.0000    Z=             -1.3398  Tot=              1.3398
 Quadrupole moment (field-independent basis, Debye-Ang):
   XX=           -172.4551   YY=           -184.7385   ZZ=           -174.5528
   XY=              0.0000   XZ=              0.0000   YZ=              0.0000

 Normal termination of Gaussian 09 at Mon Jan 21 11:05:08 2013.
