 Gaussian 09, Revision A.02,
 Gaussian 09:  AM64L-G09RevA.02 11-Jun-2009

 -----------------------
 # G4 scfcyc=500 scf=xqc
 -----------------------

 -----
 si9-c
 -----
 Symbolic Z-matrix:
 Charge =  1 Multiplicity = 2

 SCF Done:  E(UB3LYP) =  -2605.15078901     A.U. after   19 cycles
 SCF Done:  E(UB3LYP) =  -2605.15087356     A.U. after   13 cycles
 SCF Done:  E(UB3LYP) =  -2605.15091743     A.U. after   13 cycles
 SCF Done:  E(UB3LYP) =  -2605.15092450     A.U. after   12 cycles
 SCF Done:  E(UB3LYP) =  -2605.15092791     A.U. after   20 cycles
 SCF Done:  E(UB3LYP) =  -2605.15093020     A.U. after   12 cycles
 SCF Done:  E(UB3LYP) =  -2605.15093120     A.U. after   10 cycles
 Optimization completed.
    -- Stationary point found.
 Normal termination of Gaussian 09 at Tue Dec 20 20:07:47 2011.

 ----------------------------------------------------------
 #N Geom=AllCheck Guess=TCheck SCRF=Check B3LYP/GTBas3 Freq
 ----------------------------------------------------------

 si9-c
 -----
 Redundant internal coordinates taken from checkpoint file:
 S9L-ne-d-01.chk
 Charge =  1 Multiplicity = 2

 SCF Done:  E(UB3LYP) =  -2605.15093120     A.U. after    1 cycles

  Exact polarizability: 231.920  -0.009 235.423   0.000   0.000 276.296
 Approx polarizability: 752.945  -0.054 746.048   0.000   0.000 944.351

                     1                      2                      3
                     A                      B                      B
 Frequencies --    96.0394               103.1830               108.5905
 Red. masses --    27.9769                27.9769                27.9769
 Frc consts  --     0.1520                 0.1755                 0.1944
 IR Inten    --     0.0000                 3.5609                 1.0614

                     4                      5                      6
                     A                      B                      B
 Frequencies --   133.0452               183.3004               185.5754
 Red. masses --    27.9769                27.9769                27.9769
 Frc consts  --     0.2918                 0.5538                 0.5677
 IR Inten    --     0.4898                 1.0181                 0.6611

                     7                      8                      9
                     A                      A                      B
 Frequencies --   186.4525               201.7699               204.6997
 Red. masses --    27.9769                27.9769                27.9769
 Frc consts  --     0.5730                 0.6711                 0.6907
 IR Inten    --     0.6928                 0.0000                 0.0303

                    10                     11                     12
                     B                      A                      A
 Frequencies --   229.1966               266.5307               274.7518
 Red. masses --    27.9769                27.9769                27.9769
 Frc consts  --     0.8659                 1.1710                 1.2443
 IR Inten    --     0.2822                 3.3152                 3.0222

                    13                     14                     15
                     B                      A                      A
 Frequencies --   285.8463               301.4324               308.6444
 Red. masses --    27.9769                27.9769                27.9769
 Frc consts  --     1.3468                 1.4977                 1.5702
 IR Inten    --     0.2815                 0.6394                 0.6568

                    16                     17                     18
                     A                      B                      A
 Frequencies --   321.9093               335.5964               361.1920
 Red. masses --    27.9769                27.9769                27.9769
 Frc consts  --     1.7081                 1.8565                 2.1504
 IR Inten    --     0.0000                21.5736                 0.0468

                    19                     20                     21
                     B                      B                      A
 Frequencies --   366.8995               420.8795               448.8524
 Red. masses --    27.9769                27.9769                27.9769
 Frc consts  --     2.2189                 2.9199                 3.3209
 IR Inten    --    11.0022                15.9997                41.8142

 - Thermochemistry -
 -------------------
 Temperature   298.150 Kelvin.  Pressure   1.00000 Atm.
 Atom     1 has atomic number 14 and mass  27.97693

 Molecular mass:   251.79236 amu.
 Principal axes and moments of inertia in atomic units:
                           1         2         3
     Eigenvalues --  2431.966153063.126913134.00263
           X            0.00000  -0.00207   1.00000
           Y            0.00000   1.00000   0.00207
           Z            1.00000   0.00000   0.00000
 This molecule is an asymmetric top.
 Rotational symmetry number  2.
 Warning -- assumption of classical behavior for rotation
           may cause significant error
 Rotational temperatures (Kelvin)      0.03561     0.02828     0.02764
 Rotational constants (GHZ):           0.74209     0.58918     0.57586
 Zero-point vibrational energy      31846.9 (Joules/Mol)
                                    7.61159 (Kcal/Mol)
 Warning -- explicit consideration of  21 degrees of freedom as
           vibrations may cause significant error
 Vibrational temperatures:    138.18   148.46   156.24   191.42   263.73
          (Kelvin)            267.00   268.26   290.30   294.52   329.76
                              383.48   395.31   411.27   433.69   444.07
                              463.16   482.85   519.67   527.89   605.55
                              645.80

 Zero-point correction=                           0.012130 (Hartree/Particle)
 Thermal correction to Energy=                    0.025406
 Thermal correction to Enthalpy=                  0.026350
 Thermal correction to Gibbs Free Energy=        -0.027782
 Sum of electronic and zero-point Energies=          -2605.138801
 Sum of electronic and thermal Energies=             -2605.125526
 Sum of electronic and thermal Enthalpies=           -2605.124581
 Sum of electronic and thermal Free Energies=        -2605.178714

                     E (Thermal)             CV                S
                      KCal/Mol        Cal/Mol-Kelvin    Cal/Mol-Kelvin
 Total                   15.942             42.370            113.931
 Electronic               0.000              0.000              1.377
 Translational            0.889              2.981             42.471
 Rotational               0.889              2.981             30.146
 Vibrational             14.165             36.408             39.937
 Vibration     1          0.603              1.952              3.533
 Vibration     2          0.605              1.947              3.393
 Vibration     3          0.606              1.942              3.294
 Vibration     4          0.613              1.920              2.902
 Vibration     5          0.631              1.863              2.295
 Vibration     6          0.632              1.860              2.272
 Vibration     7          0.632              1.858              2.263
 Vibration     8          0.639              1.837              2.117
 Vibration     9          0.640              1.833              2.090
 Vibration    10          0.652              1.796              1.885
 Vibration    11          0.672              1.735              1.619
 Vibration    12          0.677              1.720              1.566
 Vibration    13          0.684              1.700              1.498
 Vibration    14          0.693              1.671              1.409
 Vibration    15          0.698              1.657              1.370
 Vibration    16          0.707              1.632              1.300
 Vibration    17          0.717              1.604              1.233
 Vibration    18          0.735              1.552              1.117
 Vibration    19          0.740              1.540              1.093
 Vibration    20          0.783              1.425              0.889
 Vibration    21          0.808              1.363              0.799

 Normal termination of Gaussian 09 at Tue Dec 20 20:14:33 2011.

 -----------------------------------------------------------------
 #N Geom=AllCheck Guess=TCheck SCRF=Check CCSD(T,E4T,FrzG4)/GTBas1
 -----------------------------------------------------------------

 si9-c
 -----
 Redundant internal coordinates taken from checkpoint file:
 S9L-ne-d-01.chk
 Charge =  1 Multiplicity = 2

 SCF Done:  E(UHF) =  -2599.80406204     A.U. after   27 cycles
 E2 =    -0.8666035882D+00 EUMP2 =    -0.26006706656303D+04
 CCSD(T)= -0.26007408698D+04
 483\CCSD(T)=-2600.7408698\S2=0.838842\S2-1=0.802865\S2A=0.756937\RMSD=
 Normal termination of Gaussian 09 at Tue Dec 20 20:31:45 2011.

 ---------------------------------------------------------
 #N Geom=AllCheck Guess=TCheck SCRF=Check MP4=FrzG4/GTBas2
 ---------------------------------------------------------

 si9-c
 -----
 Redundant internal coordinates taken from checkpoint file:
 S9L-ne-d-01.chk
 Charge =  1 Multiplicity = 2

 SCF Done:  E(UHF) =  -2599.81229737     A.U. after   21 cycles
 E2 =    -0.8730764029D+00 EUMP2 =    -0.26006853737750D+04
 Normal termination of Gaussian 09 at Tue Dec 20 20:39:08 2011.

 ---------------------------------------------------------
 #N Geom=AllCheck Guess=TCheck SCRF=Check MP4=FrzG4/GTBas3
 ---------------------------------------------------------

 si9-c
 -----
 Redundant internal coordinates taken from checkpoint file:
 S9L-ne-d-01.chk
 Charge =  1 Multiplicity = 2

 SCF Done:  E(UHF) =  -2599.87943640     A.U. after   23 cycles
 E2 =    -0.1069743407D+01 EUMP2 =    -0.26009491798084D+04
 Normal termination of Gaussian 09 at Tue Dec 20 21:17:47 2011.

 -----------------------------------------------------------
 #N Geom=AllCheck Guess=TCheck SCRF=Check MP2=Full/GTLargeXP
 -----------------------------------------------------------

 si9-c
 -----
 Redundant internal coordinates taken from checkpoint file:
 S9L-ne-d-01.chk
 Charge =  1 Multiplicity = 2

 SCF Done:  E(UHF) =  -2600.05363269     A.U. after   21 cycles
 E2 =    -0.3735621740D+01 EUMP2 =    -0.26037892544305D+04
 Normal termination of Gaussian 09 at Tue Dec 20 22:46:50 2011.
 SCF Done:  E(UHF) =  -2600.10217884     A.U. after   15 cycles
 Normal termination of Gaussian 09 at Tue Dec 20 23:07:22 2011.

                         Standard orientation:
 ---------------------------------------------------------------------
 Center     Atomic      Atomic             Coordinates (Angstroms)
 Number     Number       Type             X           Y           Z
 ---------------------------------------------------------------------
      1         14           0       -1.280369   -0.000002   -1.252832
      2         14           0        0.000000    2.031431   -1.728565
      3         14           0        0.000000   -2.031431   -1.728565
      4         14           0        1.280369    0.000002   -1.252832
      5         14           0       -2.066120    0.000384    1.110703
      6         14           0        0.000039    1.461570    0.589496
      7         14           0       -0.000039   -1.461570    0.589496
      8         14           0        2.066120   -0.000384    1.110703
      9         14           0        0.000000    0.000000    2.562396
 ---------------------------------------------------------------------

 SCF Done:  E(UHF) =  -2600.11112513     A.U. after   17 cycles

 The electronic state is 2-A.
 Alpha  occ. eigenvalues --  -68.97569 -68.96796 -68.96796 -68.96720 -68.96720
 Alpha  occ. eigenvalues --  -68.96479 -68.96479 -68.95771 -68.95771  -6.31912
 Alpha  occ. eigenvalues --   -6.31434  -6.31432  -6.31099  -6.31098  -6.30831
 Alpha  occ. eigenvalues --   -6.30830  -6.30297  -6.30291  -4.41907  -4.41877
 Alpha  occ. eigenvalues --   -4.41866  -4.41866  -4.41797  -4.41795  -4.41794
 Alpha  occ. eigenvalues --   -4.41639  -4.41636  -4.41383  -4.41383  -4.41171
 Alpha  occ. eigenvalues --   -4.41171  -4.41159  -4.41158  -4.41108  -4.41108
 Alpha  occ. eigenvalues --   -4.40873  -4.40872  -4.40849  -4.40837  -4.40790
 Alpha  occ. eigenvalues --   -4.40776  -4.40680  -4.40660  -4.40547  -4.40539
 Alpha  occ. eigenvalues --   -1.05742  -0.92619  -0.88571  -0.86791  -0.71155
 Alpha  occ. eigenvalues --   -0.70750  -0.69188  -0.67305  -0.62255  -0.56502
 Alpha  occ. eigenvalues --   -0.50069  -0.49231  -0.47841  -0.46526  -0.46309
 Alpha  occ. eigenvalues --   -0.46125  -0.44616  -0.44362
 Alpha virt. eigenvalues --   -0.16495  -0.16162  -0.15570  -0.11175  -0.09432
 Alpha virt. eigenvalues --   -0.08617  -0.08092  -0.08034  -0.06942  -0.06800
 Alpha virt. eigenvalues --   -0.05581  -0.05180  -0.04916  -0.04708  -0.04036

  Beta  occ. eigenvalues --  -68.97711 -68.96732 -68.96732 -68.96599 -68.96599
  Beta  occ. eigenvalues --  -68.96320 -68.96320 -68.95820 -68.95820  -6.32054
  Beta  occ. eigenvalues --   -6.31361  -6.31359  -6.30965  -6.30964  -6.30655
  Beta  occ. eigenvalues --   -6.30654  -6.30417  -6.30410  -4.42182  -4.42173
  Beta  occ. eigenvalues --   -4.42130  -4.41728  -4.41722  -4.41624  -4.41624
  Beta  occ. eigenvalues --   -4.41546  -4.41546  -4.41073  -4.41073  -4.40959
  Beta  occ. eigenvalues --   -4.40959  -4.40903  -4.40885  -4.40867  -4.40866
  Beta  occ. eigenvalues --   -4.40757  -4.40755  -4.40690  -4.40688  -4.40633
  Beta  occ. eigenvalues --   -4.40625  -4.40476  -4.40470  -4.40408  -4.40403
  Beta  occ. eigenvalues --   -1.04761  -0.91505  -0.86327  -0.84908  -0.70482
  Beta  occ. eigenvalues --   -0.67632  -0.67252  -0.66990  -0.61472  -0.50802
  Beta  occ. eigenvalues --   -0.50232  -0.49066  -0.46667  -0.46426  -0.45925
  Beta  occ. eigenvalues --   -0.45258  -0.44562
  Beta virt. eigenvalues --   -0.21260  -0.15551  -0.15268  -0.14482  -0.10750
  Beta virt. eigenvalues --   -0.09027  -0.08961  -0.07899  -0.07624  -0.06970
  Beta virt. eigenvalues --   -0.06897  -0.05157  -0.05122  -0.04482  -0.04123

 Mulliken atomic charges:
              1
     1  Si   0.128307
     2  Si   0.053979
     3  Si   0.053979
     4  Si   0.128307
     5  Si   0.051937
     6  Si   0.187265
     7  Si   0.187265
     8  Si   0.051937
     9  Si   0.157024
 Sum of Mulliken atomic charges =   1.00000

 Dipole moment (field-independent basis, Debye):
    X=              0.0000    Y=              0.0000    Z=              0.2452  Tot=              0.2452
 Quadrupole moment (field-independent basis, Debye-Ang):
   XX=           -104.7164   YY=           -102.3451   ZZ=            -98.3611
   XY=             -0.0001   XZ=              0.0000   YZ=              0.0000

 Normal termination of Gaussian 09 at Wed Dec 21 01:37:13 2011.
