 Gaussian 09, Revision A.02,
 Gaussian 09:  AM64L-G09RevA.02 11-Jun-2009

 -----------------------
 # G4 scfcyc=500 scf=xqc
 -----------------------

 -----
 si7-c
 -----
 Symbolic Z-matrix:
 Charge =  1 Multiplicity = 2

 SCF Done:  E(UB3LYP) =  -2026.15719545     A.U. after   18 cycles
 SCF Done:  E(UB3LYP) =  -2026.15722630     A.U. after   11 cycles
 SCF Done:  E(UB3LYP) =  -2026.15724512     A.U. after   12 cycles
 SCF Done:  E(UB3LYP) =  -2026.15724796     A.U. after   11 cycles
 Optimization completed.
    -- Stationary point found.
 Normal termination of Gaussian 09 at Tue Dec 20 19:40:50 2011.

 ----------------------------------------------------------
 #N Geom=AllCheck Guess=TCheck SCRF=Check B3LYP/GTBas3 Freq
 ----------------------------------------------------------

 si7-c
 -----
 Redundant internal coordinates taken from checkpoint file:
 S9L-ne-d-01.chk
 Charge =  1 Multiplicity = 2

 SCF Done:  E(UB3LYP) =  -2026.15724796     A.U. after    1 cycles

  Exact polarizability: 142.479   0.000 221.256   0.000   0.000 200.216
 Approx polarizability: 434.747   0.000 703.916   0.000   0.000 603.262

                     1                      2                      3
                    A2                     B1                     A1
 Frequencies --   116.6685               116.9030               146.1996
 Red. masses --    27.9769                27.9769                27.9769
 Frc consts  --     0.2244                 0.2253                 0.3523
 IR Inten    --     0.0000                 0.1756                 0.1854

                     4                      5                      6
                    B2                     B1                     B2
 Frequencies --   230.6780               232.6079               234.3639
 Red. masses --    27.9769                27.9769                27.9769
 Frc consts  --     0.8771                 0.8919                 0.9054
 IR Inten    --     0.6925                 0.5107                 1.9537

                     7                      8                      9
                    A1                     A1                     A2
 Frequencies --   255.1304               296.5293               313.0765
 Red. masses --    27.9769                27.9769                27.9769
 Frc consts  --     1.0729                 1.4494                 1.6157
 IR Inten    --     3.5158                 2.2760                 0.0000

                    10                     11                     12
                    B1                     A1                     B2
 Frequencies --   324.7697               340.7150               383.9924
 Red. masses --    27.9769                27.9769                27.9769
 Frc consts  --     1.7386                 1.9135                 2.4305
 IR Inten    --     0.0017                 1.3495                16.8736

                    13                     14                     15
                    B2                     A1                     A1
 Frequencies --   395.2757               395.4157               412.8542
 Red. masses --    27.9769                27.9769                27.9769
 Frc consts  --     2.5754                 2.5773                 2.8096
 IR Inten    --    15.1025                18.8157                 0.7602

 - Thermochemistry -
 -------------------
 Temperature   298.150 Kelvin.  Pressure   1.00000 Atm.
 Atom     1 has atomic number 14 and mass  27.97693

 Molecular mass:   195.83850 amu.
 Principal axes and moments of inertia in atomic units:
                           1         2         3
     Eigenvalues --  1374.448151606.325992281.35862
           X            0.00000   0.00000   1.00000
           Y            1.00000   0.00000   0.00000
           Z            0.00000   1.00000   0.00000
 This molecule is an asymmetric top.
 Rotational symmetry number  2.
 Warning -- assumption of classical behavior for rotation
           may cause significant error
 Rotational temperatures (Kelvin)      0.06302     0.05392     0.03797
 Rotational constants (GHZ):           1.31307     1.12352     0.79108
 Zero-point vibrational energy      25092.7 (Joules/Mol)
                                    5.99731 (Kcal/Mol)
 Warning -- explicit consideration of  15 degrees of freedom as
           vibrations may cause significant error
 Vibrational temperatures:    167.86   168.20   210.35   331.89   334.67
          (Kelvin)            337.20   367.08   426.64   450.45   467.27
                              490.21   552.48   568.71   568.91   594.00

 Zero-point correction=                           0.009557 (Hartree/Particle)
 Thermal correction to Energy=                    0.019300
 Thermal correction to Enthalpy=                  0.020244
 Thermal correction to Gibbs Free Energy=        -0.025938
 Sum of electronic and zero-point Energies=          -2026.147691
 Sum of electronic and thermal Energies=             -2026.137948
 Sum of electronic and thermal Enthalpies=           -2026.137004
 Sum of electronic and thermal Free Energies=        -2026.183186

                     E (Thermal)             CV                S
                      KCal/Mol        Cal/Mol-Kelvin    Cal/Mol-Kelvin
 Total                   12.111             31.323             97.198
 Electronic               0.000              0.000              1.377
 Translational            0.889              2.981             41.722
 Rotational               0.889              2.981             28.623
 Vibrational             10.333             25.361             25.476
 Vibration     1          0.608              1.936              3.155
 Vibration     2          0.608              1.935              3.151
 Vibration     3          0.617              1.907              2.721
 Vibration     4          0.652              1.794              1.874
 Vibration     5          0.653              1.791              1.859
 Vibration     6          0.654              1.788              1.845
 Vibration     7          0.666              1.754              1.695
 Vibration     8          0.690              1.680              1.436
 Vibration     9          0.701              1.649              1.346
 Vibration    10          0.709              1.626              1.286
 Vibration    11          0.720              1.594              1.209
 Vibration    12          0.753              1.504              1.023
 Vibration    13          0.762              1.480              0.980
 Vibration    14          0.762              1.480              0.980
 Vibration    15          0.777              1.442              0.917

 Normal termination of Gaussian 09 at Tue Dec 20 19:44:32 2011.

 -----------------------------------------------------------------
 #N Geom=AllCheck Guess=TCheck SCRF=Check CCSD(T,E4T,FrzG4)/GTBas1
 -----------------------------------------------------------------

 si7-c
 -----
 Redundant internal coordinates taken from checkpoint file:
 S9L-ne-d-01.chk
 Charge =  1 Multiplicity = 2

 SCF Done:  E(UHF) =  -2022.01582958     A.U. after   22 cycles
 E2 =    -0.6510620071D+00 EUMP2 =    -0.20226668915842D+04
 CCSD(T)= -0.20227277834D+04
 Normal termination of Gaussian 09 at Tue Dec 20 19:49:02 2011.

 ---------------------------------------------------------
 #N Geom=AllCheck Guess=TCheck SCRF=Check MP4=FrzG4/GTBas2
 ---------------------------------------------------------

 si7-c
 -----
 Redundant internal coordinates taken from checkpoint file:
 S9L-ne-d-01.chk
 Charge =  1 Multiplicity = 2

 SCF Done:  E(UHF) =  -2022.02096480     A.U. after   18 cycles
 E2 =    -0.6548097132D+00 EUMP2 =    -0.20226757745160D+04
 Normal termination of Gaussian 09 at Tue Dec 20 19:50:58 2011.

 ---------------------------------------------------------
 #N Geom=AllCheck Guess=TCheck SCRF=Check MP4=FrzG4/GTBas3
 ---------------------------------------------------------

 si7-c
 -----
 Redundant internal coordinates taken from checkpoint file:
 S9L-ne-d-01.chk
 Charge =  1 Multiplicity = 2

 SCF Done:  E(UHF) =  -2022.07702777     A.U. after   20 cycles
 E2 =    -0.8017440455D+00 EUMP2 =    -0.20228787718143D+04
 Normal termination of Gaussian 09 at Tue Dec 20 19:59:53 2011.

 -----------------------------------------------------------
 #N Geom=AllCheck Guess=TCheck SCRF=Check MP2=Full/GTLargeXP
 -----------------------------------------------------------

 si7-c
 -----
 Redundant internal coordinates taken from checkpoint file:
 S9L-ne-d-01.chk
 Charge =  1 Multiplicity = 2

 SCF Done:  E(UHF) =  -2022.21283417     A.U. after   17 cycles
 E2 =    -0.2872655980D+01 EUMP2 =    -0.20250854901462D+04
 Normal termination of Gaussian 09 at Tue Dec 20 20:33:59 2011.
 SCF Done:  E(UHF) =  -2022.25053106     A.U. after   16 cycles
 Normal termination of Gaussian 09 at Tue Dec 20 20:47:15 2011.

                         Standard orientation:
 ---------------------------------------------------------------------
 Center     Atomic      Atomic             Coordinates (Angstroms)
 Number     Number       Type             X           Y           Z
 ---------------------------------------------------------------------
      1         14           0        0.000000    2.056517    0.758909
      2         14           0        0.000000    0.000000    1.952440
      3         14           0        0.000000   -2.056517    0.758909
      4         14           0        0.000000   -1.435149   -1.622931
      5         14           0        0.000000    1.435149   -1.622931
      6         14           0       -1.322936    0.000000   -0.112198
      7         14           0        1.322936    0.000000   -0.112198
 ---------------------------------------------------------------------

 SCF Done:  E(UHF) =  -2022.25742865     A.U. after   14 cycles

 The electronic state is 2-A1.
 Alpha  occ. eigenvalues --  -68.98808 -68.98438 -68.98438 -68.98357 -68.98357
 Alpha  occ. eigenvalues --  -68.96638 -68.96638  -6.33415  -6.32737  -6.32737
 Alpha  occ. eigenvalues --   -6.32725  -6.32722  -6.31302  -6.31297  -4.44159
 Alpha  occ. eigenvalues --   -4.43599  -4.43366  -4.43093  -4.43092  -4.42921
 Alpha  occ. eigenvalues --   -4.42921  -4.42808  -4.42808  -4.42772  -4.42770
 Alpha  occ. eigenvalues --   -4.42717  -4.42717  -4.42616  -4.42609  -4.41670
 Alpha  occ. eigenvalues --   -4.41651  -4.41560  -4.41559  -4.41507  -4.41506
 Alpha  occ. eigenvalues --   -1.06150  -0.89066  -0.87562  -0.76640  -0.68920
 Alpha  occ. eigenvalues --   -0.67603  -0.65470  -0.51331  -0.50982  -0.49834
 Alpha  occ. eigenvalues --   -0.49165  -0.48704  -0.48006  -0.46893
 Alpha virt. eigenvalues --   -0.17175  -0.14524  -0.12807  -0.12677  -0.09820
 Alpha virt. eigenvalues --   -0.09641  -0.08175  -0.08015  -0.06801  -0.06762
 Alpha virt. eigenvalues --   -0.06346  -0.05016  -0.04808  -0.04704  -0.03767

  Beta  occ. eigenvalues --  -68.98324 -68.98324 -68.98321 -68.98258 -68.98258
  Beta  occ. eigenvalues --  -68.96681 -68.96681  -6.32678  -6.32612  -6.32611
  Beta  occ. eigenvalues --   -6.32601  -6.32601  -6.31357  -6.31352  -4.43272
  Beta  occ. eigenvalues --   -4.43185  -4.42747  -4.42746  -4.42746  -4.42740
  Beta  occ. eigenvalues --   -4.42714  -4.42708  -4.42667  -4.42666  -4.42547
  Beta  occ. eigenvalues --   -4.42541  -4.42541  -4.42277  -4.42276  -4.41724
  Beta  occ. eigenvalues --   -4.41704  -4.41641  -4.41640  -4.41598  -4.41596
  Beta  occ. eigenvalues --   -1.05486  -0.87818  -0.85315  -0.76899  -0.67547
  Beta  occ. eigenvalues --   -0.66340  -0.58573  -0.51240  -0.50969  -0.49040
  Beta  occ. eigenvalues --   -0.48296  -0.47211  -0.46842
  Beta virt. eigenvalues --   -0.20474  -0.16926  -0.14325  -0.11732  -0.11502
  Beta virt. eigenvalues --   -0.09221  -0.09124  -0.07622  -0.07395  -0.06683
  Beta virt. eigenvalues --   -0.05673  -0.05400  -0.04858  -0.04553  -0.04510

 Mulliken atomic charges:
              1
     1  Si   0.169589
     2  Si   0.140113
     3  Si   0.169589
     4  Si   0.175690
     5  Si   0.175690
     6  Si   0.084665
     7  Si   0.084665
 Sum of Mulliken atomic charges =   1.00000

 Dipole moment (field-independent basis, Debye):
    X=              0.0000    Y=              0.0000    Z=              1.0133  Tot=              1.0133
 Quadrupole moment (field-independent basis, Debye-Ang):
   XX=            -80.4668   YY=            -75.5098   ZZ=            -75.5893
   XY=              0.0000   XZ=              0.0000   YZ=              0.0000

 Normal termination of Gaussian 09 at Tue Dec 20 22:04:18 2011.
