 Gaussian 09, Revision A.02,
 Gaussian 09:  AM64L-G09RevA.02 11-Jun-2009

 -----------------------
 # G4 scfcyc=500 scf=xqc
 -----------------------

 ------------
 si13-an-d-01
 ------------
 Symbolic Z-matrix:
 Charge = -1 Multiplicity = 2

 SCF Done:  E(UB3LYP) =  -3763.50593061     A.U. after   22 cycles
 SCF Done:  E(UB3LYP) =  -3763.50605614     A.U. after   21 cycles
 SCF Done:  E(UB3LYP) =  -3763.50618234     A.U. after   17 cycles
 SCF Done:  E(UB3LYP) =  -3763.50620846     A.U. after   13 cycles
 SCF Done:  E(UB3LYP) =  -3763.50622530     A.U. after   14 cycles
 SCF Done:  E(UB3LYP) =  -3763.50623059     A.U. after   12 cycles
 SCF Done:  E(UB3LYP) =  -3763.50623399     A.U. after   13 cycles
 SCF Done:  E(UB3LYP) =  -3763.50623488     A.U. after   12 cycles
 SCF Done:  E(UB3LYP) =  -3763.50623595     A.U. after   12 cycles
 SCF Done:  E(UB3LYP) =  -3763.50623653     A.U. after   12 cycles
 Optimization completed.
    -- Stationary point found.
 Normal termination of Gaussian 09 at Tue Mar  6 16:08:07 2012.

 ----------------------------------------------------------
 #N Geom=AllCheck Guess=TCheck SCRF=Check B3LYP/GTBas3 Freq
 ----------------------------------------------------------

 si13-an-d-01
 ------------
 Redundant internal coordinates taken from checkpoint file:
 S9L-ne-d-01.chk
 Charge = -1 Multiplicity = 2

 SCF Done:  E(UB3LYP) =  -3763.50623654     A.U. after    1 cycles

  Exact polarizability: 336.415  13.264 493.860   0.000   0.000 388.257
 Approx polarizability:1181.711  70.8141701.981   0.000   0.0001309.601

                     1                      2                      3
                    A'                     A"                     A"
 Frequencies --    69.0238               102.0933               108.6173
 Red. masses --    27.9769                27.9769                27.9769
 Frc consts  --     0.0785                 0.1718                 0.1945
 IR Inten    --     0.0755                 0.0000                 0.0138

                     4                      5                      6
                    A'                     A'                     A'
 Frequencies --   133.5390               139.4597               155.9202
 Red. masses --    27.9769                27.9769                27.9769
 Frc consts  --     0.2939                 0.3206                 0.4007
 IR Inten    --     2.6079                 1.6564                 0.0786

                     7                      8                      9
                    A"                     A'                     A"
 Frequencies --   172.2729               173.1923               178.7628
 Red. masses --    27.9769                27.9769                27.9769
 Frc consts  --     0.4892                 0.4944                 0.5267
 IR Inten    --     0.5021                 1.1847                 0.0053

                    10                     11                     12
                    A"                     A'                     A'
 Frequencies --   206.1675               207.4233               214.1293
 Red. masses --    27.9769                27.9769                27.9769
 Frc consts  --     0.7006                 0.7092                 0.7558
 IR Inten    --     0.0022                 0.1643                 1.7285

                    13                     14                     15
                    A'                     A"                     A'
 Frequencies --   229.2112               238.4637               251.6849
 Red. masses --    27.9769                27.9769                27.9769
 Frc consts  --     0.8660                 0.9373                 1.0442
 IR Inten    --     2.4256                 0.0009                 0.4424

                    16                     17                     18
                    A'                     A"                     A'
 Frequencies --   261.6998               265.2349               282.6655
 Red. masses --    27.9769                27.9769                27.9769
 Frc consts  --     1.1289                 1.1596                 1.3170
 IR Inten    --     0.1219                 0.2606                 3.2369

                    19                     20                     21
                    A"                     A'                     A'
 Frequencies --   283.2184               296.2795               313.7063
 Red. masses --    27.9769                27.9769                27.9769
 Frc consts  --     1.3222                 1.4469                 1.6222
 IR Inten    --     0.1538                 0.8882                 1.4619

                    22                     23                     24
                    A"                     A'                     A'
 Frequencies --   325.7711               328.4114               329.5062
 Red. masses --    27.9769                27.9769                27.9769
 Frc consts  --     1.7493                 1.7778                 1.7897
 IR Inten    --     0.1645                 0.3254                 0.4442

                    25                     26                     27
                    A"                     A"                     A'
 Frequencies --   338.9560               343.0688               352.2648
 Red. masses --    27.9769                27.9769                27.9769
 Frc consts  --     1.8938                 1.9400                 2.0454
 IR Inten    --     1.0081                 0.1635                 1.0657

                    28                     29                     30
                    A'                     A"                     A'
 Frequencies --   370.8067               380.0323               406.7453
 Red. masses --    27.9769                27.9769                27.9769
 Frc consts  --     2.2664                 2.3806                 2.7271
 IR Inten    --     0.1848                 0.0000                 0.1518

                    31                     32                     33
                    A"                     A'                     A"
 Frequencies --   420.5338               455.4101               466.5045
 Red. masses --    27.9769                27.9769                27.9769
 Frc consts  --     2.9151                 3.4187                 3.5873
 IR Inten    --     0.6789                 0.7508                 0.0713

 - Thermochemistry -
 -------------------
 Temperature   298.150 Kelvin.  Pressure   1.00000 Atm.
 Atom     1 has atomic number 14 and mass  27.97693

 Molecular mass:   363.70007 amu.
 Principal axes and moments of inertia in atomic units:
                           1         2         3
     Eigenvalues --  4146.513546401.032227038.53024
           X            0.07733   0.00000   0.99701
           Y            0.99701   0.00000  -0.07733
           Z            0.00000   1.00000   0.00000
 This molecule is an asymmetric top.
 Rotational symmetry number  1.
 Warning -- assumption of classical behavior for rotation
           may cause significant error
 Rotational temperatures (Kelvin)      0.02089     0.01353     0.01231
 Rotational constants (GHZ):           0.43524     0.28195     0.25641
 Zero-point vibrational energy      52640.3 (Joules/Mol)
                                   12.58134 (Kcal/Mol)
 Warning -- explicit consideration of  33 degrees of freedom as
           vibrations may cause significant error
 Vibrational temperatures:     99.31   146.89   156.28   192.13   200.65
          (Kelvin)            224.33   247.86   249.18   257.20   296.63
                              298.44   308.08   329.78   343.10   362.12
                              376.53   381.61   406.69   407.49   426.28
                              451.35   468.71   472.51   474.09   487.68
                              493.60   506.83   533.51   546.78   585.22
                              605.05   655.23   671.20

 Zero-point correction=                           0.020050 (Hartree/Particle)
 Thermal correction to Energy=                    0.038720
 Thermal correction to Enthalpy=                  0.039664
 Thermal correction to Gibbs Free Energy=        -0.026091
 Sum of electronic and zero-point Energies=          -3763.486187
 Sum of electronic and thermal Energies=             -3763.467517
 Sum of electronic and thermal Enthalpies=           -3763.466573
 Sum of electronic and thermal Free Energies=        -3763.532328

                     E (Thermal)             CV                S
                      KCal/Mol        Cal/Mol-Kelvin    Cal/Mol-Kelvin
 Total                   24.297             62.423            138.393
 Electronic               0.000              0.000              1.377
 Translational            0.889              2.981             43.567
 Rotational               0.889              2.981             33.590
 Vibrational             22.519             56.462             59.858
 Vibration     1          0.598              1.969              4.181
 Vibration     2          0.604              1.947              3.414
 Vibration     3          0.606              1.942              3.293
 Vibration     4          0.613              1.920              2.894
 Vibration     5          0.615              1.914              2.811
 Vibration     6          0.620              1.896              2.599
 Vibration     7          0.626              1.877              2.411
 Vibration     8          0.627              1.875              2.401
 Vibration     9          0.629              1.868              2.341
 Vibration    10          0.641              1.831              2.077
 Vibration    11          0.641              1.829              2.066
 Vibration    12          0.644              1.819              2.008
 Vibration    13          0.652              1.796              1.885
 Vibration    14          0.656              1.782              1.814
 Vibration    15          0.664              1.760              1.719
 Vibration    16          0.669              1.743              1.650
 Vibration    17          0.671              1.737              1.627
 Vibration    18          0.682              1.706              1.517
 Vibration    19          0.682              1.705              1.514
 Vibration    20          0.690              1.681              1.438
 Vibration    21          0.702              1.648              1.343
 Vibration    22          0.710              1.624              1.281
 Vibration    23          0.712              1.619              1.268
 Vibration    24          0.712              1.617              1.263
 Vibration    25          0.719              1.598              1.217
 Vibration    26          0.722              1.589              1.198
 Vibration    27          0.729              1.571              1.156
 Vibration    28          0.743              1.532              1.076
 Vibration    29          0.750              1.513              1.039
 Vibration    30          0.772              1.456              0.938
 Vibration    31          0.783              1.426              0.890
 Vibration    32          0.814              1.349              0.780
 Vibration    33          0.824              1.324              0.747

 Normal termination of Gaussian 09 at Tue Mar  6 17:01:27 2012.

 -----------------------------------------------------------------
 #N Geom=AllCheck Guess=TCheck SCRF=Check CCSD(T,E4T,FrzG4)/GTBas1
 -----------------------------------------------------------------

 si13-an-d-01
 ------------
 Redundant internal coordinates taken from checkpoint file:
 S9L-ne-d-01.chk
 Charge = -1 Multiplicity = 2

 SCF Done:  E(UHF) =  -3755.74965149     A.U. after   27 cycles
 E2 =    -0.1306948690D+01 EUMP2 =    -0.37570566001812D+04
 CCSD(T)= -0.37571446354D+04
 207788\CCSD(T)=-3757.1446354\S2=0.90815\S2-1=0.844998\S2A=0.771397\RMS
 Normal termination of Gaussian 09 at Tue Mar  6 20:22:35 2012.

 ---------------------------------------------------------
 #N Geom=AllCheck Guess=TCheck SCRF=Check MP4=FrzG4/GTBas2
 ---------------------------------------------------------

 si13-an-d-01
 ------------
 Redundant internal coordinates taken from checkpoint file:
 S9L-ne-d-01.chk
 Charge = -1 Multiplicity = 2

 SCF Done:  E(UHF) =  -3755.75991898     A.U. after   23 cycles
 E2 =    -0.1328070114D+01 EUMP2 =    -0.37570879890952D+04
 Normal termination of Gaussian 09 at Tue Mar  6 22:05:56 2012.

 ---------------------------------------------------------
 #N Geom=AllCheck Guess=TCheck SCRF=Check MP4=FrzG4/GTBas3
 ---------------------------------------------------------

 si13-an-d-01
 ------------
 Redundant internal coordinates taken from checkpoint file:
 S9L-ne-d-01.chk
 Charge = -1 Multiplicity = 2

 SCF Done:  E(UHF) =  -3755.83800159     A.U. after   25 cycles
 E2 =    -0.1642888074D+01 EUMP2 =    -0.37574808896687D+04
 Normal termination of Gaussian 09 at Wed Mar  7 07:27:55 2012.

 -----------------------------------------------------------
 #N Geom=AllCheck Guess=TCheck SCRF=Check MP2=Full/GTLargeXP
 -----------------------------------------------------------

 si13-an-d-01
 ------------
 Redundant internal coordinates taken from checkpoint file:
 S9L-ne-d-01.chk
 Charge = -1 Multiplicity = 2

 SCF Done:  E(UHF) =  -3756.08875579     A.U. after   23 cycles
 E2 =    -0.5505403414D+01 EUMP2 =    -0.37615941592043D+04
 Normal termination of Gaussian 09 at Thu Mar  8 05:54:58 2012.
 SCF Done:  E(UHF) =  -3756.15830137     A.U. after   18 cycles
 Normal termination of Gaussian 09 at Thu Mar  8 08:06:00 2012.

                         Standard orientation:
 ---------------------------------------------------------------------
 Center     Atomic      Atomic             Coordinates (Angstroms)
 Number     Number       Type             X           Y           Z
 ---------------------------------------------------------------------
      1         14           0       -0.110885   -2.655097    1.981387
      2         14           0       -0.110885   -0.292484   -1.518987
      3         14           0       -1.407655   -2.295764    0.000000
      4         14           0        1.186110   -2.227673    0.000000
      5         14           0       -0.110885   -0.292484    1.518987
      6         14           0       -2.026392    0.161895    0.000000
      7         14           0       -0.110885   -2.655097   -1.981387
      8         14           0        1.311395    1.555853    1.940060
      9         14           0       -1.199914    2.005657    1.405013
     10         14           0        0.592085    2.982660    0.000000
     11         14           0        1.876428    0.151022    0.000000
     12         14           0        1.311395    1.555853   -1.940060
     13         14           0       -1.199914    2.005657   -1.405013
 ---------------------------------------------------------------------

 SCF Done:  E(UHF) =  -3756.17164722     A.U. after   20 cycles

 The electronic state is 2-A'.
 Alpha  occ. eigenvalues --  -68.70035 -68.69586 -68.69586 -68.68981 -68.68398
 Alpha  occ. eigenvalues --  -68.68398 -68.67406 -68.67101 -68.66817 -68.66817
 Alpha  occ. eigenvalues --  -68.66158 -68.66158 -68.65865  -6.04542  -6.04090
 Alpha  occ. eigenvalues --   -6.04089  -6.03546  -6.02793  -6.02789  -6.02036
 Alpha  occ. eigenvalues --   -6.01919  -6.01370  -6.01369  -6.00749  -6.00749
 Alpha  occ. eigenvalues --   -6.00439  -4.15264  -4.14720  -4.14709  -4.14556
 Alpha  occ. eigenvalues --   -4.14553  -4.14493  -4.14491  -4.14449  -4.14449
 Alpha  occ. eigenvalues --   -4.14216  -4.13832  -4.13679  -4.13123  -4.13122
 Alpha  occ. eigenvalues --   -4.12971  -4.12970  -4.12908  -4.12898  -4.12615
 Alpha  occ. eigenvalues --   -4.12416  -4.12285  -4.12283  -4.12231  -4.12104
 Alpha  occ. eigenvalues --   -4.11632  -4.11631  -4.11583  -4.11583  -4.11465
 Alpha  occ. eigenvalues --   -4.11465  -4.11008  -4.11008  -4.10964  -4.10964
 Alpha  occ. eigenvalues --   -4.10913  -4.10913  -4.10723  -4.10673  -4.10611
 Alpha  occ. eigenvalues --   -0.78118  -0.69853  -0.64491  -0.62893  -0.56170
 Alpha  occ. eigenvalues --   -0.55802  -0.49956  -0.44511  -0.43854  -0.39396
 Alpha  occ. eigenvalues --   -0.38572  -0.36139  -0.34634  -0.31082  -0.26287
 Alpha  occ. eigenvalues --   -0.25819  -0.22647  -0.21669  -0.21104  -0.19333
 Alpha  occ. eigenvalues --   -0.18369  -0.17916  -0.17475  -0.17239  -0.15844
 Alpha  occ. eigenvalues --   -0.15356  -0.13906
 Alpha virt. eigenvalues --    0.09259   0.09898   0.09923   0.10078   0.10271
 Alpha virt. eigenvalues --    0.10719   0.10907   0.10966   0.11031   0.11039
 Alpha virt. eigenvalues --    0.11681   0.12119   0.12462   0.12546   0.12617

  Beta  occ. eigenvalues --  -68.69723 -68.69646 -68.69646 -68.68798 -68.68313
  Beta  occ. eigenvalues --  -68.68312 -68.67209 -68.66877 -68.66858 -68.66858
  Beta  occ. eigenvalues --  -68.66139 -68.66139 -68.65853  -6.04162  -6.04160
  Beta  occ. eigenvalues --   -6.04104  -6.03279  -6.02696  -6.02693  -6.01725
  Beta  occ. eigenvalues --   -6.01553  -6.01403  -6.01402  -6.00723  -6.00723
  Beta  occ. eigenvalues --   -6.00425  -4.14677  -4.14674  -4.14631  -4.14630
  Beta  occ. eigenvalues --   -4.14591  -4.14519  -4.14518  -4.14463  -4.14170
  Beta  occ. eigenvalues --   -4.13819  -4.13606  -4.13477  -4.12907  -4.12897
  Beta  occ. eigenvalues --   -4.12885  -4.12884  -4.12708  -4.12707  -4.12234
  Beta  occ. eigenvalues --   -4.12215  -4.12054  -4.12040  -4.11945  -4.11811
  Beta  occ. eigenvalues --   -4.11751  -4.11751  -4.11636  -4.11636  -4.11602
  Beta  occ. eigenvalues --   -4.11602  -4.10956  -4.10956  -4.10948  -4.10948
  Beta  occ. eigenvalues --   -4.10889  -4.10889  -4.10672  -4.10660  -4.10610
  Beta  occ. eigenvalues --   -0.77899  -0.69116  -0.64614  -0.62141  -0.56070
  Beta  occ. eigenvalues --   -0.55673  -0.48386  -0.43767  -0.43617  -0.38797
  Beta  occ. eigenvalues --   -0.38647  -0.33727  -0.33058  -0.30270  -0.26309
  Beta  occ. eigenvalues --   -0.23380  -0.22551  -0.21418  -0.18942  -0.18682
  Beta  occ. eigenvalues --   -0.18368  -0.17406  -0.17147  -0.16285  -0.15774
  Beta  occ. eigenvalues --   -0.15176
  Beta virt. eigenvalues --    0.07767   0.09372   0.09915   0.09934   0.10293
  Beta virt. eigenvalues --    0.10550   0.10758   0.10912   0.11031   0.11059
  Beta virt. eigenvalues --    0.11712   0.12147   0.12400   0.12487   0.12621

 Mulliken atomic charges:
              1
     1  Si  -0.249554
     2  Si   0.379425
     3  Si   0.054294
     4  Si  -0.043188
     5  Si   0.379425
     6  Si  -0.157877
     7  Si  -0.249554
     8  Si  -0.286827
     9  Si  -0.166173
    10  Si  -0.121615
    11  Si  -0.085356
    12  Si  -0.286827
    13  Si  -0.166173
 Sum of Mulliken atomic charges =  -1.00000

 Dipole moment (field-independent basis, Debye):
    X=             -0.5655    Y=             -2.6982    Z=              0.0000  Tot=              2.7568
 Quadrupole moment (field-independent basis, Debye-Ang):
   XX=           -194.0004   YY=           -220.2103   ZZ=           -207.9615
   XY=             -1.1276   XZ=              0.0000   YZ=              0.0000

 Normal termination of Gaussian 09 at Thu Mar  8 22:30:12 2012.
