 Gaussian 09, Revision A.02,
 Gaussian 09:  AM64L-G09RevA.02 11-Jun-2009

 -----------------------
 # G4 scfcyc=500 scf=xqc
 -----------------------

 ------
 si11-n
 ------
 Symbolic Z-matrix:
 Charge =  0 Multiplicity = 1

 SCF Done:  E(RB3LYP) =  -3184.41248630     A.U. after   18 cycles
 SCF Done:  E(RB3LYP) =  -3184.41265559     A.U. after   11 cycles
 SCF Done:  E(RB3LYP) =  -3184.41277286     A.U. after   12 cycles
 SCF Done:  E(RB3LYP) =  -3184.41280957     A.U. after   11 cycles
 SCF Done:  E(RB3LYP) =  -3184.41282041     A.U. after   11 cycles
 SCF Done:  E(RB3LYP) =  -3184.41282194     A.U. after   10 cycles
 Optimization completed.
    -- Stationary point found.
 Normal termination of Gaussian 09 at Sun Dec 18 02:03:04 2011.

 ----------------------------------------------------------
 #N Geom=AllCheck Guess=TCheck SCRF=Check B3LYP/GTBas3 Freq
 ----------------------------------------------------------

 si11-n
 ------
 Redundant internal coordinates taken from checkpoint file:
 S9L-ne-d-01.chk
 Charge =  0 Multiplicity = 1

 SCF Done:  E(RB3LYP) =  -3184.41282194     A.U. after    1 cycles

  Exact polarizability: 308.344 -16.978 374.135   0.000   0.000 287.273
 Approx polarizability:1049.501 -53.8871292.837   0.000   0.000 983.947

                     1                      2                      3
                    A"                     A'                     A"
 Frequencies --    88.4216               107.6637               135.6008
 Red. masses --    27.9769                27.9769                27.9769
 Frc consts  --     0.1289                 0.1911                 0.3031
 IR Inten    --     0.1874                 0.5510                 0.8690

                     4                      5                      6
                    A"                     A'                     A'
 Frequencies --   145.0187               148.4204               160.4813
 Red. masses --    27.9769                27.9769                27.9769
 Frc consts  --     0.3467                 0.3631                 0.4245
 IR Inten    --     0.0042                 0.0657                 1.4671

                     7                      8                      9
                    A'                     A"                     A'
 Frequencies --   185.8693               200.1680               219.6940
 Red. masses --    27.9769                27.9769                27.9769
 Frc consts  --     0.5695                 0.6604                 0.7956
 IR Inten    --     0.0335                 0.5792                 3.9988

                    10                     11                     12
                    A"                     A'                     A"
 Frequencies --   223.8448               231.7497               236.8259
 Red. masses --    27.9769                27.9769                27.9769
 Frc consts  --     0.8259                 0.8853                 0.9245
 IR Inten    --     0.6236                 1.0465                 0.0142

                    13                     14                     15
                    A'                     A'                     A"
 Frequencies --   252.0027               255.1923               270.1119
 Red. masses --    27.9769                27.9769                27.9769
 Frc consts  --     1.0468                 1.0735                 1.2026
 IR Inten    --     0.1042                 0.8195                 1.1808

                    16                     17                     18
                    A'                     A"                     A'
 Frequencies --   279.5004               296.3236               309.6316
 Red. masses --    27.9769                27.9769                27.9769
 Frc consts  --     1.2877                 1.4474                 1.5803
 IR Inten    --     1.0488                 0.0111                 0.6639

                    19                     20                     21
                    A'                     A'                     A"
 Frequencies --   323.4989               346.2553               346.8528
 Red. masses --    27.9769                27.9769                27.9769
 Frc consts  --     1.7250                 1.9763                 1.9831
 IR Inten    --     0.8936                 3.1606                 0.1930

                    22                     23                     24
                    A'                     A"                     A'
 Frequencies --   363.4951               367.7725               403.3871
 Red. masses --    27.9769                27.9769                27.9769
 Frc consts  --     2.1779                 2.2295                 2.6822
 IR Inten    --     0.7457                 2.0528                 4.7879

                    25                     26                     27
                    A"                     A'                     A'
 Frequencies --   420.0356               462.0278               471.3068
 Red. masses --    27.9769                27.9769                27.9769
 Frc consts  --     2.9082                 3.5187                 3.6615
 IR Inten    --     7.8909                 5.4084                10.1528

 - Thermochemistry -
 -------------------
 Temperature   298.150 Kelvin.  Pressure   1.00000 Atm.
 Atom     1 has atomic number 14 and mass  27.97693

 Molecular mass:   307.74621 amu.
 Principal axes and moments of inertia in atomic units:
                           1         2         3
     Eigenvalues --  3350.103224482.147974704.61619
           X           -0.26092   0.96536   0.00000
           Y            0.96536   0.26092   0.00000
           Z            0.00000   0.00000   1.00000
 This molecule is an asymmetric top.
 Rotational symmetry number  1.
 Warning -- assumption of classical behavior for rotation
           may cause significant error
 Rotational temperatures (Kelvin)      0.02585     0.01932     0.01841
 Rotational constants (GHZ):           0.53871     0.40265     0.38361
 Zero-point vibrational energy      43371.5 (Joules/Mol)
                                   10.36604 (Kcal/Mol)
 Warning -- explicit consideration of  27 degrees of freedom as
           vibrations may cause significant error
 Vibrational temperatures:    127.22   154.90   195.10   208.65   213.54
          (Kelvin)            230.90   267.42   288.00   316.09   322.06
                              333.44   340.74   362.58   367.16   388.63
                              402.14   426.34   445.49   465.44   498.18
                              499.04   522.99   529.14   580.38   604.34
                              664.75   678.10

 Zero-point correction=                           0.016519 (Hartree/Particle)
 Thermal correction to Energy=                    0.032246
 Thermal correction to Enthalpy=                  0.033190
 Thermal correction to Gibbs Free Energy=        -0.025751
 Sum of electronic and zero-point Energies=          -3184.396303
 Sum of electronic and thermal Energies=             -3184.380576
 Sum of electronic and thermal Enthalpies=           -3184.379632
 Sum of electronic and thermal Free Energies=        -3184.438573

                     E (Thermal)             CV                S
                      KCal/Mol        Cal/Mol-Kelvin    Cal/Mol-Kelvin
 Total                   20.234             52.080            124.051
 Electronic               0.000              0.000              0.000
 Translational            0.889              2.981             43.069
 Rotational               0.889              2.981             32.624
 Vibrational             18.457             46.118             48.359
 Vibration     1          0.601              1.957              3.695
 Vibration     2          0.606              1.943              3.311
 Vibration     3          0.613              1.918              2.865
 Vibration     4          0.616              1.908              2.737
 Vibration     5          0.618              1.904              2.692
 Vibration     6          0.622              1.891              2.544
 Vibration     7          0.632              1.859              2.269
 Vibration     8          0.638              1.840              2.132
 Vibration     9          0.647              1.811              1.962
 Vibration    10          0.649              1.805              1.928
 Vibration    11          0.653              1.792              1.865
 Vibration    12          0.656              1.784              1.827
 Vibration    13          0.664              1.759              1.717
 Vibration    14          0.666              1.754              1.694
 Vibration    15          0.674              1.728              1.595
 Vibration    16          0.680              1.711              1.537
 Vibration    17          0.690              1.681              1.438
 Vibration    18          0.699              1.655              1.364
 Vibration    19          0.708              1.628              1.292
 Vibration    20          0.724              1.583              1.183
 Vibration    21          0.725              1.582              1.180
 Vibration    22          0.737              1.547              1.107
 Vibration    23          0.740              1.539              1.089
 Vibration    24          0.769              1.463              0.950
 Vibration    25          0.783              1.427              0.892
 Vibration    26          0.820              1.334              0.760
 Vibration    27          0.828              1.314              0.734

 Normal termination of Gaussian 09 at Sun Dec 18 02:13:24 2011.

 -----------------------------------------------------------------
 #N Geom=AllCheck Guess=TCheck SCRF=Check CCSD(T,E4T,FrzG4)/GTBas1
 -----------------------------------------------------------------

 si11-n
 ------
 Redundant internal coordinates taken from checkpoint file:
 S9L-ne-d-01.chk
 Charge =  0 Multiplicity = 1

 SCF Done:  E(RHF) =  -3177.85022620     A.U. after   18 cycles
 E2 =    -0.1108578222D+01 EUMP2 =    -0.31789588044185D+04
 CCSD(T)= -0.31790275569D+04
 753\CCSD(T)=-3179.0275569\RMSD=5.815e-09\PG=CS [SG(Si5),X(Si6)]\\@
 Normal termination of Gaussian 09 at Sun Dec 18 02:31:14 2011.

 ---------------------------------------------------------
 #N Geom=AllCheck Guess=TCheck SCRF=Check MP4=FrzG4/GTBas2
 ---------------------------------------------------------

 si11-n
 ------
 Redundant internal coordinates taken from checkpoint file:
 S9L-ne-d-01.chk
 Charge =  0 Multiplicity = 1

 SCF Done:  E(RHF) =  -3177.85957150     A.U. after   17 cycles
 E2 =    -0.1124176869D+01 EUMP2 =    -0.31789837483703D+04
 Normal termination of Gaussian 09 at Sun Dec 18 02:41:53 2011.

 ---------------------------------------------------------
 #N Geom=AllCheck Guess=TCheck SCRF=Check MP4=FrzG4/GTBas3
 ---------------------------------------------------------

 si11-n
 ------
 Redundant internal coordinates taken from checkpoint file:
 S9L-ne-d-01.chk
 Charge =  0 Multiplicity = 1

 SCF Done:  E(RHF) =  -3177.93239967     A.U. after   17 cycles
 E2 =    -0.1384542325D+01 EUMP2 =    -0.31793169419904D+04
 Normal termination of Gaussian 09 at Sun Dec 18 03:36:53 2011.

 -----------------------------------------------------------
 #N Geom=AllCheck Guess=TCheck SCRF=Check MP2=Full/GTLargeXP
 -----------------------------------------------------------

 si11-n
 ------
 Redundant internal coordinates taken from checkpoint file:
 S9L-ne-d-01.chk
 Charge =  0 Multiplicity = 1

 SCF Done:  E(RHF) =  -3178.14364276     A.U. after   14 cycles
 E2 =    -0.4649553548D+01 EUMP2 =    -0.31827931963083D+04
 Normal termination of Gaussian 09 at Sun Dec 18 05:31:39 2011.
 SCF Done:  E(RHF) =  -3178.20287346     A.U. after   14 cycles
 Normal termination of Gaussian 09 at Sun Dec 18 06:03:05 2011.

                         Standard orientation:
 ---------------------------------------------------------------------
 Center     Atomic      Atomic             Coordinates (Angstroms)
 Number     Number       Type             X           Y           Z
 ---------------------------------------------------------------------
      1         14           0       -0.479836    3.261471    0.000000
      2         14           0        1.494025    1.736925    0.000000
      3         14           0        1.323962   -0.302112    1.287869
      4         14           0       -0.298376   -2.267140    0.000000
      5         14           0       -0.868719    1.230987   -1.218924
      6         14           0       -0.868719    1.230987    1.218924
      7         14           0        1.323962   -0.302112   -1.287869
      8         14           0       -0.868719   -0.995426    2.163781
      9         14           0        2.242896   -2.032145    0.000000
     10         14           0       -2.131758   -0.566012    0.000000
     11         14           0       -0.868719   -0.995426   -2.163781
 ---------------------------------------------------------------------

 SCF Done:  E(RHF) =  -3178.21401124     A.U. after   11 cycles

 The electronic state is 1-A'.
 Alpha  occ. eigenvalues --  -68.82056 -68.82056 -68.81797 -68.80933 -68.80932
 Alpha  occ. eigenvalues --  -68.80834 -68.80788 -68.80515 -68.80478 -68.80478
 Alpha  occ. eigenvalues --  -68.79787  -6.16677  -6.16666  -6.16141  -6.15538
 Alpha  occ. eigenvalues --   -6.15531  -6.15321  -6.15287  -6.14996  -6.14968
 Alpha  occ. eigenvalues --   -6.14967  -6.14427  -4.27074  -4.27063  -4.27053
 Alpha  occ. eigenvalues --   -4.27016  -4.26933  -4.26925  -4.26239  -4.26239
 Alpha  occ. eigenvalues --   -4.26218  -4.25991  -4.25969  -4.25882  -4.25877
 Alpha  occ. eigenvalues --   -4.25835  -4.25830  -4.25504  -4.25503  -4.25469
 Alpha  occ. eigenvalues --   -4.25428  -4.25401  -4.25390  -4.25207  -4.25192
 Alpha  occ. eigenvalues --   -4.25170  -4.25124  -4.25124  -4.25106  -4.25105
 Alpha  occ. eigenvalues --   -4.25078  -4.25077  -4.24701  -4.24651  -4.24643
 Alpha  occ. eigenvalues --   -0.90277  -0.79483  -0.76860  -0.75087  -0.64237
 Alpha  occ. eigenvalues --   -0.60353  -0.56399  -0.55473  -0.54235  -0.49717
 Alpha  occ. eigenvalues --   -0.44684  -0.39086  -0.35700  -0.35692  -0.34453
 Alpha  occ. eigenvalues --   -0.33912  -0.32286  -0.32220  -0.31197  -0.31025
 Alpha  occ. eigenvalues --   -0.29979  -0.25022
 Alpha virt. eigenvalues --   -0.02031  -0.01544   0.00438   0.00555   0.01167
 Alpha virt. eigenvalues --    0.02611   0.02660   0.03000   0.03110   0.03337
 Alpha virt. eigenvalues --    0.03506   0.03649   0.03960   0.04493   0.05239

 Mulliken atomic charges:
              1
     1  Si  -0.001893
     2  Si  -0.136422
     3  Si   0.129817
     4  Si   0.027115
     5  Si   0.098303
     6  Si   0.098303
     7  Si   0.129817
     8  Si  -0.120349
     9  Si  -0.097222
    10  Si  -0.007122
    11  Si  -0.120349
 Sum of Mulliken atomic charges =   0.00000

 Dipole moment (field-independent basis, Debye):
    X=              0.5218    Y=              1.7516    Z=              0.0000  Tot=              1.8276
 Quadrupole moment (field-independent basis, Debye-Ang):
   XX=           -149.9617   YY=           -153.2808   ZZ=           -147.6774
   XY=             -1.5051   XZ=              0.0000   YZ=              0.0000

 Normal termination of Gaussian 09 at Sun Dec 18 08:45:13 2011.
