 Gaussian 09, Revision A.02,
 Gaussian 09:  AM64L-G09RevA.02 11-Jun-2009

 -----------------------
 # G4 scfcyc=500 scf=xqc
 -----------------------

 -----
 si8-c
 -----
 Symbolic Z-matrix:
 Charge =  1 Multiplicity = 2

 SCF Done:  E(UB3LYP) =  -2315.65435951     A.U. after   18 cycles
 SCF Done:  E(UB3LYP) =  -2315.65449126     A.U. after   13 cycles
 SCF Done:  E(UB3LYP) =  -2315.65453433     A.U. after   11 cycles
 SCF Done:  E(UB3LYP) =  -2315.65453931     A.U. after   10 cycles
 SCF Done:  E(UB3LYP) =  -2315.65454023     A.U. after   10 cycles
 Optimization completed.
    -- Stationary point found.
 Normal termination of Gaussian 09 at Wed Dec 21 06:03:35 2011.

 ----------------------------------------------------------
 #N Geom=AllCheck Guess=TCheck SCRF=Check B3LYP/GTBas3 Freq
 ----------------------------------------------------------

 si8-c
 -----
 Redundant internal coordinates taken from checkpoint file:
 S9L-ne-d-01.chk
 Charge =  1 Multiplicity = 2

 SCF Done:  E(UB3LYP) =  -2315.65454023     A.U. after    1 cycles

  Exact polarizability: 156.287   0.000 221.944   0.000   0.000 309.968
 Approx polarizability: 465.096   0.000 696.623   0.000   0.000 980.798

                     1                      2                      3
                    B1                     B1                     B2
 Frequencies --    78.9527               106.5422               135.0776
 Red. masses --    27.9769                27.9769                27.9769
 Frc consts  --     0.1028                 0.1871                 0.3008
 IR Inten    --     0.0399                 0.2276                 0.7230

                     4                      5                      6
                    A2                     A1                     B2
 Frequencies --   141.8484               174.2089               223.3304
 Red. masses --    27.9769                27.9769                27.9769
 Frc consts  --     0.3317                 0.5003                 0.8221
 IR Inten    --     0.0000                 0.1041                 0.0955

                     7                      8                      9
                    B1                     B2                     A1
 Frequencies --   236.0553               253.4423               257.3135
 Red. masses --    27.9769                27.9769                27.9769
 Frc consts  --     0.9185                 1.0588                 1.0914
 IR Inten    --     0.0461                 1.0154                 7.0173

                    10                     11                     12
                    A1                     A1                     A2
 Frequencies --   294.4129               312.4841               321.3208
 Red. masses --    27.9769                27.9769                27.9769
 Frc consts  --     1.4288                 1.6096                 1.7019
 IR Inten    --     0.5345                 3.7376                 0.0000

                    13                     14                     15
                    B1                     B2                     A1
 Frequencies --   322.4226               337.5507               385.9481
 Red. masses --    27.9769                27.9769                27.9769
 Frc consts  --     1.7136                 1.8781                 2.4553
 IR Inten    --     0.5318                15.0784                 6.3621

                    16                     17                     18
                    A1                     B2                     A1
 Frequencies --   405.0555               418.9537               441.3023
 Red. masses --    27.9769                27.9769                27.9769
 Frc consts  --     2.7045                 2.8932                 3.2101
 IR Inten    --     7.8471                23.7921                15.5707

 - Thermochemistry -
 -------------------
 Temperature   298.150 Kelvin.  Pressure   1.00000 Atm.
 Atom     1 has atomic number 14 and mass  27.97693

 Molecular mass:   223.81543 amu.
 Principal axes and moments of inertia in atomic units:
                           1         2         3
     Eigenvalues --  1543.021462645.459463468.65670
           X            0.00000   0.00000   1.00000
           Y            0.00000   1.00000   0.00000
           Z            1.00000   0.00000   0.00000
 This molecule is an asymmetric top.
 Rotational symmetry number  2.
 Warning -- assumption of classical behavior for rotation
           may cause significant error
 Rotational temperatures (Kelvin)      0.05613     0.03274     0.02497
 Rotational constants (GHZ):           1.16962     0.68220     0.52030
 Zero-point vibrational energy      28986.8 (Joules/Mol)
                                    6.92802 (Kcal/Mol)
 Warning -- explicit consideration of  18 degrees of freedom as
           vibrations may cause significant error
 Vibrational temperatures:    113.60   153.29   194.35   204.09   250.65
          (Kelvin)            321.32   339.63   364.65   370.22   423.59
                              449.59   462.31   463.89   485.66   555.29
                              582.78   602.78   634.93

 Zero-point correction=                           0.011041 (Hartree/Particle)
 Thermal correction to Energy=                    0.022475
 Thermal correction to Enthalpy=                  0.023419
 Thermal correction to Gibbs Free Energy=        -0.026891
 Sum of electronic and zero-point Energies=          -2315.643500
 Sum of electronic and thermal Energies=             -2315.632066
 Sum of electronic and thermal Enthalpies=           -2315.631121
 Sum of electronic and thermal Free Energies=        -2315.681432

                     E (Thermal)             CV                S
                      KCal/Mol        Cal/Mol-Kelvin    Cal/Mol-Kelvin
 Total                   14.103             36.638            105.886
 Electronic               0.000              0.000              1.377
 Translational            0.889              2.981             42.120
 Rotational               0.889              2.981             29.650
 Vibrational             12.326             30.676             32.740
 Vibration     1          0.600              1.963              3.917
 Vibration     2          0.605              1.944              3.331
 Vibration     3          0.613              1.918              2.872
 Vibration     4          0.615              1.911              2.779
 Vibration     5          0.627              1.874              2.390
 Vibration     6          0.649              1.806              1.932
 Vibration     7          0.655              1.786              1.832
 Vibration     8          0.665              1.757              1.707
 Vibration     9          0.667              1.750              1.680
 Vibration    10          0.689              1.684              1.448
 Vibration    11          0.701              1.650              1.349
 Vibration    12          0.707              1.633              1.303
 Vibration    13          0.707              1.631              1.298
 Vibration    14          0.718              1.600              1.224
 Vibration    15          0.755              1.500              1.016
 Vibration    16          0.770              1.459              0.944
 Vibration    17          0.782              1.429              0.896
 Vibration    18          0.801              1.380              0.823

 Optimization completed.
    -- Stationary point found.
 Normal termination of Gaussian 09 at Wed Dec 21 06:09:39 2011.

 -----------------------------------------------------------------
 #N Geom=AllCheck Guess=TCheck SCRF=Check CCSD(T,E4T,FrzG4)/GTBas1
 -----------------------------------------------------------------

 si8-c
 -----
 Redundant internal coordinates taken from checkpoint file:
 S9L-ne-d-01.chk
 Charge =  1 Multiplicity = 2

 SCF Done:  E(UHF) =  -2310.91867971     A.U. after   22 cycles
 E2 =    -0.7454618519D+00 EUMP2 =    -0.23116641415588D+04
 CCSD(T)= -0.23117326451D+04
 9617\CCSD=-2311.6646298\CCSD(T)=-2311.7326451\S2=0.791471\S2-1=0.77096
 Normal termination of Gaussian 09 at Wed Dec 21 06:19:54 2011.

 ---------------------------------------------------------
 #N Geom=AllCheck Guess=TCheck SCRF=Check MP4=FrzG4/GTBas2
 ---------------------------------------------------------

 si8-c
 -----
 Redundant internal coordinates taken from checkpoint file:
 S9L-ne-d-01.chk
 Charge =  1 Multiplicity = 2

 SCF Done:  E(UHF) =  -2310.92517814     A.U. after   18 cycles
 E2 =    -0.7504265362D+00 EUMP2 =    -0.23116756046788D+04
 Normal termination of Gaussian 09 at Wed Dec 21 06:23:39 2011.

 ---------------------------------------------------------
 #N Geom=AllCheck Guess=TCheck SCRF=Check MP4=FrzG4/GTBas3
 ---------------------------------------------------------

 si8-c
 -----
 Redundant internal coordinates taken from checkpoint file:
 S9L-ne-d-01.chk
 Charge =  1 Multiplicity = 2

 SCF Done:  E(UHF) =  -2310.98609427     A.U. after   19 cycles
 E2 =    -0.9229908749D+00 EUMP2 =    -0.23119090851468D+04
 Normal termination of Gaussian 09 at Wed Dec 21 06:41:43 2011.

 -----------------------------------------------------------
 #N Geom=AllCheck Guess=TCheck SCRF=Check MP2=Full/GTLargeXP
 -----------------------------------------------------------

 si8-c
 -----
 Redundant internal coordinates taken from checkpoint file:
 S9L-ne-d-01.chk
 Charge =  1 Multiplicity = 2

 SCF Done:  E(UHF) =  -2311.14123565     A.U. after   18 cycles
 E2 =    -0.3291707144D+01 EUMP2 =    -0.23144329427961D+04
 Normal termination of Gaussian 09 at Wed Dec 21 07:49:34 2011.
 SCF Done:  E(UHF) =  -2311.18442529     A.U. after   16 cycles
 Normal termination of Gaussian 09 at Wed Dec 21 08:11:08 2011.

                         Standard orientation:
 ---------------------------------------------------------------------
 Center     Atomic      Atomic             Coordinates (Angstroms)
 Number     Number       Type             X           Y           Z
 ---------------------------------------------------------------------
      1         14           0        0.000000    0.000000   -2.547295
      2         14           0       -1.342098    0.000000   -0.518386
      3         14           0        0.000000    1.229566    1.204029
      4         14           0        0.000000   -1.229566    1.204029
      5         14           0        0.000000    0.000000    3.277614
      6         14           0        0.000000   -2.099808   -1.050802
      7         14           0        1.342098    0.000000   -0.518386
      8         14           0        0.000000    2.099808   -1.050802
 ---------------------------------------------------------------------

 SCF Done:  E(UHF) =  -2311.19230687     A.U. after   14 cycles

 The electronic state is 2-B1.
 Alpha  occ. eigenvalues --  -68.98194 -68.98194 -68.97503 -68.97502 -68.97154
 Alpha  occ. eigenvalues --  -68.96337 -68.96337 -68.95937  -6.32476  -6.32475
 Alpha  occ. eigenvalues --   -6.32059  -6.32048  -6.31532  -6.31035  -6.31031
 Alpha  occ. eigenvalues --   -6.30292  -4.42535  -4.42535  -4.42515  -4.42515
 Alpha  occ. eigenvalues --   -4.42485  -4.42485  -4.42424  -4.42383  -4.42366
 Alpha  occ. eigenvalues --   -4.42362  -4.42273  -4.42267  -4.41766  -4.41563
 Alpha  occ. eigenvalues --   -4.41542  -4.41414  -4.41405  -4.41257  -4.41257
 Alpha  occ. eigenvalues --   -4.41228  -4.41223  -4.41039  -4.40203  -4.40147
 Alpha  occ. eigenvalues --   -1.06136  -0.91780  -0.87675  -0.78179  -0.77218
 Alpha  occ. eigenvalues --   -0.66955  -0.66849  -0.58624  -0.53955  -0.50831
 Alpha  occ. eigenvalues --   -0.50543  -0.49436  -0.47332  -0.47323  -0.45738
 Alpha  occ. eigenvalues --   -0.42819
 Alpha virt. eigenvalues --   -0.16637  -0.14356  -0.13175  -0.13004  -0.12723
 Alpha virt. eigenvalues --   -0.09438  -0.08411  -0.08283  -0.07190  -0.07027
 Alpha virt. eigenvalues --   -0.06498  -0.05285  -0.04801  -0.04331  -0.03983

  Beta  occ. eigenvalues --  -68.98203 -68.98203 -68.97549 -68.97549 -68.97060
  Beta  occ. eigenvalues --  -68.96285 -68.96285 -68.95509  -6.32486  -6.32486
  Beta  occ. eigenvalues --   -6.32123  -6.32112  -6.31426  -6.30953  -6.30948
  Beta  occ. eigenvalues --   -6.29795  -4.42541  -4.42541  -4.42533  -4.42533
  Beta  occ. eigenvalues --   -4.42506  -4.42506  -4.42475  -4.42475  -4.42471
  Beta  occ. eigenvalues --   -4.42438  -4.42315  -4.42307  -4.41514  -4.41491
  Beta  occ. eigenvalues --   -4.41358  -4.41345  -4.41293  -4.41204  -4.41203
  Beta  occ. eigenvalues --   -4.41129  -4.41124  -4.39998  -4.39893  -4.38970
  Beta  occ. eigenvalues --   -1.05880  -0.89713  -0.87820  -0.76605  -0.74498
  Beta  occ. eigenvalues --   -0.66828  -0.66798  -0.57161  -0.51128  -0.50866
  Beta  occ. eigenvalues --   -0.49914  -0.48721  -0.47315  -0.47150  -0.45607
  Beta virt. eigenvalues --   -0.17118  -0.14544  -0.13862  -0.13017  -0.12615
  Beta virt. eigenvalues --   -0.10701  -0.09150  -0.08188  -0.07188  -0.06959
  Beta virt. eigenvalues --   -0.06236  -0.06164  -0.05171  -0.04703  -0.04321

 Mulliken atomic charges:
              1
     1  Si   0.134162
     2  Si   0.115035
     3  Si   0.116771
     4  Si   0.116771
     5  Si   0.087041
     6  Si   0.157592
     7  Si   0.115035
     8  Si   0.157592
 Sum of Mulliken atomic charges =   1.00000

 Dipole moment (field-independent basis, Debye):
    X=              0.0000    Y=              0.0000    Z=             -0.0230  Tot=              0.0230
 Quadrupole moment (field-independent basis, Debye-Ang):
   XX=            -93.9939   YY=            -88.6098   ZZ=            -84.8421
   XY=              0.0000   XZ=              0.0000   YZ=              0.0000

 Normal termination of Gaussian 09 at Wed Dec 21 10:12:10 2011.
