 Gaussian 09, Revision A.02,
 Gaussian 09:  AM64L-G09RevA.02 11-Jun-2009

 -----------------------
 # G4 scfcyc=500 scf=xqc
 -----------------------

 ------
 si10-n
 ------
 Symbolic Z-matrix:
 Charge =  0 Multiplicity = 1

 SCF Done:  E(RB3LYP) =  -2894.94271355     A.U. after   16 cycles
 SCF Done:  E(RB3LYP) =  -2894.94286421     A.U. after    9 cycles
 SCF Done:  E(RB3LYP) =  -2894.94295064     A.U. after   10 cycles
 SCF Done:  E(RB3LYP) =  -2894.94296653     A.U. after   10 cycles
 SCF Done:  E(RB3LYP) =  -2894.94296741     A.U. after    9 cycles
 Optimization completed.
    -- Stationary point found.
 Normal termination of Gaussian 09 at Tue Dec 20 03:09:48 2011.

 ----------------------------------------------------------
 #N Geom=AllCheck Guess=TCheck SCRF=Check B3LYP/GTBas3 Freq
 ----------------------------------------------------------

 si10-n
 ------
 Redundant internal coordinates taken from checkpoint file:
 S9L-ne-d-01.chk
 Charge =  0 Multiplicity = 1

 SCF Done:  E(RB3LYP) =  -2894.94296741     A.U. after    1 cycles

  Exact polarizability: 284.638   0.000 284.645   0.000  -0.002 296.365
 Approx polarizability: 990.685   0.000 990.685   0.000   0.0001063.539

                     1                      2                      3
                     E                      E                      E
 Frequencies --    85.8536                85.8549               181.3037
 Red. masses --    27.9769                27.9769                27.9769
 Frc consts  --     0.1215                 0.1215                 0.5418
 IR Inten    --     0.0301                 0.0302                 0.0085

                     4                      5                      6
                     E                     A1                      E
 Frequencies --   181.3053               205.1313               236.4339
 Red. masses --    27.9769                27.9769                27.9769
 Frc consts  --     0.5418                 0.6936                 0.9214
 IR Inten    --     0.0085                 0.0967                 0.6428

                     7                      8                      9
                     E                     A2                     A1
 Frequencies --   236.4346               246.6661               261.0614
 Red. masses --    27.9769                27.9769                27.9769
 Frc consts  --     0.9215                 1.0029                 1.1234
 IR Inten    --     0.6430                 0.0000                 0.5140

                    10                     11                     12
                     E                      E                      E
 Frequencies --   266.6998               266.7009               276.3979
 Red. masses --    27.9769                27.9769                27.9769
 Frc consts  --     1.1725                 1.1725                 1.2593
 IR Inten    --     0.0746                 0.0745                 0.4646

                    13                     14                     15
                     E                     ?A                     ?A
 Frequencies --   276.3981               289.4836               289.4857
 Red. masses --    27.9769                27.9769                27.9769
 Frc consts  --     1.2593                 1.3813                 1.3814
 IR Inten    --     0.4645                 0.7989                 0.7986

                    16                     17                     18
                    ?A                     A1                     A1
 Frequencies --   289.8231               298.8058               336.8945
 Red. masses --    27.9769                27.9769                27.9769
 Frc consts  --     1.3846                 1.4717                 1.8708
 IR Inten    --     0.0000                 0.4480                 2.0920

                    19                     20                     21
                    A1                      E                      E
 Frequencies --   355.2895               365.5967               365.5995
 Red. masses --    27.9769                27.9769                27.9769
 Frc consts  --     2.0807                 2.2032                 2.2032
 IR Inten    --     0.6803                 0.2159                 0.2160

                    22                     23                     24
                     E                      E                     A1
 Frequencies --   410.6310               410.6325               466.9126
 Red. masses --    27.9769                27.9769                27.9769
 Frc consts  --     2.7794                 2.7794                 3.5935
 IR Inten    --     4.7311                 4.7305                 0.5885

 - Thermochemistry -
 -------------------
 Temperature   298.150 Kelvin.  Pressure   1.00000 Atm.
 Atom     1 has atomic number 14 and mass  27.97693

 Molecular mass:   279.76928 amu.
 Principal axes and moments of inertia in atomic units:
                           1         2         3
     Eigenvalues --  3204.959183353.536873353.53687
           X            0.00000   0.04658   0.99891
           Y            0.00000   0.99891  -0.04658
           Z            1.00000   0.00000   0.00000
 This molecule is a prolate symmetric top.
 Rotational symmetry number  3.
 Warning -- assumption of classical behavior for rotation
           may cause significant error
 Rotational temperatures (Kelvin)      0.02702     0.02583     0.02583
 Rotational constants (GHZ):           0.56311     0.53816     0.53816
 Zero-point vibrational energy      39987.5 (Joules/Mol)
                                    9.55725 (Kcal/Mol)
 Warning -- explicit consideration of  24 degrees of freedom as
           vibrations may cause significant error
 Vibrational temperatures:    123.52   123.53   260.86   260.86   295.14
          (Kelvin)            340.18   340.18   354.90   375.61   383.72
                              383.72   397.67   397.67   416.50   416.50
                              416.99   429.91   484.72   511.18   526.01
                              526.02   590.81   590.81   671.78

 Zero-point correction=                           0.015230 (Hartree/Particle)
 Thermal correction to Energy=                    0.029113
 Thermal correction to Enthalpy=                  0.030057
 Thermal correction to Gibbs Free Energy=        -0.023731
 Sum of electronic and zero-point Energies=          -2894.927737
 Sum of electronic and thermal Energies=             -2894.913854
 Sum of electronic and thermal Enthalpies=           -2894.912910
 Sum of electronic and thermal Free Energies=        -2894.966698

                     E (Thermal)             CV                S
                      KCal/Mol        Cal/Mol-Kelvin    Cal/Mol-Kelvin
 Total                   18.269             46.653            113.206
 Electronic               0.000              0.000              0.000
 Translational            0.889              2.981             42.785
 Rotational               0.889              2.981             29.772
 Vibrational             16.491             40.691             40.650
 Vibration     1          0.601              1.959              3.752
 Vibration     2          0.601              1.959              3.752
 Vibration     3          0.630              1.865              2.315
 Vibration     4          0.630              1.865              2.315
 Vibration     5          0.640              1.833              2.087
 Vibration     6          0.655              1.785              1.830
 Vibration     7          0.655              1.785              1.830
 Vibration     8          0.661              1.768              1.754
 Vibration     9          0.669              1.744              1.655
 Vibration    10          0.672              1.734              1.618
 Vibration    11          0.672              1.734              1.617
 Vibration    12          0.678              1.717              1.556
 Vibration    13          0.678              1.717              1.556
 Vibration    14          0.686              1.693              1.477
 Vibration    15          0.686              1.693              1.477
 Vibration    16          0.686              1.693              1.475
 Vibration    17          0.692              1.676              1.424
 Vibration    18          0.718              1.602              1.227
 Vibration    19          0.731              1.564              1.143
 Vibration    20          0.739              1.543              1.098
 Vibration    21          0.739              1.543              1.098
 Vibration    22          0.775              1.447              0.924
 Vibration    23          0.775              1.447              0.924
 Vibration    24          0.824              1.323              0.746

 Optimization completed.
    -- Stationary point found.
 Normal termination of Gaussian 09 at Tue Dec 20 03:14:16 2011.

 -----------------------------------------------------------------
 #N Geom=AllCheck Guess=TCheck SCRF=Check CCSD(T,E4T,FrzG4)/GTBas1
 -----------------------------------------------------------------

 si10-n
 ------
 Redundant internal coordinates taken from checkpoint file:
 S9L-ne-d-01.chk
 Charge =  0 Multiplicity = 1

 SCF Done:  E(RHF) =  -2888.96207614     A.U. after   15 cycles
 E2 =    -0.1040847728D+01 EUMP2 =    -0.28900029238650D+04
 CCSD(T)= -0.28900481092D+04
 P4SDQ=-2889.9914954\CCSD=-2889.9488949\CCSD(T)=-2890.0481092\RMSD=9.96
 Normal termination of Gaussian 09 at Tue Dec 20 03:25:07 2011.

 ---------------------------------------------------------
 #N Geom=AllCheck Guess=TCheck SCRF=Check MP4=FrzG4/GTBas2
 ---------------------------------------------------------

 si10-n
 ------
 Redundant internal coordinates taken from checkpoint file:
 S9L-ne-d-01.chk
 Charge =  0 Multiplicity = 1

 SCF Done:  E(RHF) =  -2888.97072135     A.U. after   15 cycles
 E2 =    -0.1054189230D+01 EUMP2 =    -0.28900249105802D+04
 Normal termination of Gaussian 09 at Tue Dec 20 03:31:12 2011.

 ---------------------------------------------------------
 #N Geom=AllCheck Guess=TCheck SCRF=Check MP4=FrzG4/GTBas3
 ---------------------------------------------------------

 si10-n
 ------
 Redundant internal coordinates taken from checkpoint file:
 S9L-ne-d-01.chk
 Charge =  0 Multiplicity = 1

 SCF Done:  E(RHF) =  -2889.04103034     A.U. after   14 cycles
 E2 =    -0.1290385304D+01 EUMP2 =    -0.28903314156388D+04
 Normal termination of Gaussian 09 at Tue Dec 20 04:03:04 2011.

 -----------------------------------------------------------
 #N Geom=AllCheck Guess=TCheck SCRF=Check MP2=Full/GTLargeXP
 -----------------------------------------------------------

 si10-n
 ------
 Redundant internal coordinates taken from checkpoint file:
 S9L-ne-d-01.chk
 Charge =  0 Multiplicity = 1

 SCF Done:  E(RHF) =  -2889.23261677     A.U. after   13 cycles
 E2 =    -0.4259027260D+01 EUMP2 =    -0.28934916440342D+04
 Normal termination of Gaussian 09 at Tue Dec 20 05:03:15 2011.
 SCF Done:  E(RHF) =  -2889.28668144     A.U. after   12 cycles
 Normal termination of Gaussian 09 at Tue Dec 20 05:11:21 2011.

                         Standard orientation:
 ---------------------------------------------------------------------
 Center     Atomic      Atomic             Coordinates (Angstroms)
 Number     Number       Type             X           Y           Z
 ---------------------------------------------------------------------
      1         14           0        0.000000    2.448926   -0.260843
      2         14           0        1.374092    0.793332    0.942696
      3         14           0       -1.374092    0.793332    0.942696
      4         14           0       -1.278188    0.737962   -1.576385
      5         14           0       -2.120832   -1.224463   -0.260843
      6         14           0        0.000000    0.000000    2.683595
      7         14           0        1.278188    0.737962   -1.576385
      8         14           0        2.120832   -1.224463   -0.260843
      9         14           0        0.000000   -1.586664    0.942696
     10         14           0        0.000000   -1.475924   -1.576385
 ---------------------------------------------------------------------

 SCF Done:  E(RHF) =  -2889.29669198     A.U. after   11 cycles

 The electronic state is 1-A1.
 Alpha  occ. eigenvalues --  -68.81862 -68.81306 -68.81306 -68.81306 -68.80611
 Alpha  occ. eigenvalues --  -68.80611 -68.80611 -68.80285 -68.80285 -68.80285
 Alpha  occ. eigenvalues --   -6.16382  -6.15980  -6.15975  -6.15975  -6.15148
 Alpha  occ. eigenvalues --   -6.15137  -6.15137  -6.14760  -6.14760  -6.14759
 Alpha  occ. eigenvalues --   -4.26542  -4.26504  -4.26504  -4.26350  -4.26339
 Alpha  occ. eigenvalues --   -4.26339  -4.26245  -4.26245  -4.26243  -4.26243
 Alpha  occ. eigenvalues --   -4.26243  -4.26239  -4.25350  -4.25345  -4.25345
 Alpha  occ. eigenvalues --   -4.25301  -4.25296  -4.25296  -4.25279  -4.25267
 Alpha  occ. eigenvalues --   -4.25267  -4.24908  -4.24907  -4.24907  -4.24903
 Alpha  occ. eigenvalues --   -4.24903  -4.24903  -4.24900  -4.24900  -4.24900
 Alpha  occ. eigenvalues --   -0.90136  -0.76779  -0.75668  -0.75668  -0.58902
 Alpha  occ. eigenvalues --   -0.56327  -0.56327  -0.53944  -0.53944  -0.46688
 Alpha  occ. eigenvalues --   -0.34742  -0.34711  -0.34711  -0.32788  -0.32235
 Alpha  occ. eigenvalues --   -0.31676  -0.31676  -0.30519  -0.30519  -0.30112
 Alpha virt. eigenvalues --   -0.03705  -0.01466  -0.01466   0.02086   0.02916
 Alpha virt. eigenvalues --    0.02916   0.03001   0.03549   0.03549   0.03656
 Alpha virt. eigenvalues --    0.03718   0.03718   0.05047   0.05499   0.05778

 Mulliken atomic charges:
              1
     1  Si  -0.105318
     2  Si   0.134388
     3  Si   0.134388
     4  Si   0.007887
     5  Si  -0.105318
     6  Si  -0.110870
     7  Si   0.007887
     8  Si  -0.105318
     9  Si   0.134388
    10  Si   0.007887
 Sum of Mulliken atomic charges =   0.00000

 Dipole moment (field-independent basis, Debye):
    X=              0.0000    Y=              0.0000    Z=              1.1311  Tot=              1.1311
 Quadrupole moment (field-independent basis, Debye-Ang):
   XX=           -137.7849   YY=           -137.7849   ZZ=           -132.1921
   XY=              0.0000   XZ=              0.0000   YZ=              0.0000

 Normal termination of Gaussian 09 at Tue Dec 20 05:59:24 2011.
