 Gaussian 09, Revision A.02,
 Gaussian 09:  AM64L-G09RevA.02 11-Jun-2009

 -----------------------
 # G4 scfcyc=500 scf=xqc
 -----------------------

 --------
 si7-an-d
 --------
 Symbolic Z-matrix:
 Charge = -1 Multiplicity = 2

 SCF Done:  E(UB3LYP) =  -2026.50577382     A.U. after   14 cycles
 SCF Done:  E(UB3LYP) =  -2026.50582919     A.U. after    9 cycles
 SCF Done:  E(UB3LYP) =  -2026.50585625     A.U. after    9 cycles
 SCF Done:  E(UB3LYP) =  -2026.50585735     A.U. after    8 cycles
 Optimization completed.
    -- Stationary point found.
 Normal termination of Gaussian 09 at Mon Mar  5 12:14:16 2012.

 ----------------------------------------------------------
 #N Geom=AllCheck Guess=TCheck SCRF=Check B3LYP/GTBas3 Freq
 ----------------------------------------------------------

 si7-an-d
 --------
 Redundant internal coordinates taken from checkpoint file:
 S9L-ne-d-01.chk
 Charge = -1 Multiplicity = 2

 SCF Done:  E(UB3LYP) =  -2026.50585735     A.U. after    1 cycles

  Exact polarizability: 246.956   0.000 246.953   0.000   0.000 178.795
 Approx polarizability: 687.751   0.000 687.751   0.000   0.000 489.563

                     1                      2                      3
                    E2"                    E2"                    E1'
 Frequencies --   186.3824               186.3824               221.7299
 Red. masses --    27.9769                27.9769                27.9769
 Frc consts  --     0.5726                 0.5726                 0.8104
 IR Inten    --     0.0000                 0.0000                 0.1960

                     4                      5                      6
                    E1'                    A2"                    E2'
 Frequencies --   221.7305               260.6655               271.5057
 Red. masses --    27.9769                27.9769                27.9769
 Frc consts  --     0.8104                 1.1200                 1.2151
 IR Inten    --     0.1958                 0.0930                 0.0000

                     7                      8                      9
                    E2'                    A1'                    E1"
 Frequencies --   271.5057               292.3312               296.8457
 Red. masses --    27.9769                27.9769                27.9769
 Frc consts  --     1.2151                 1.4086                 1.4525
 IR Inten    --     0.0000                 0.0000                 0.0000

                    10                     11                     12
                    E1"                    E2'                    E2'
 Frequencies --   296.8472               336.8475               336.8475
 Red. masses --    27.9769                27.9769                27.9769
 Frc consts  --     1.4525                 1.8703                 1.8703
 IR Inten    --     0.0000                 0.0000                 0.0000

                    13                     14                     15
                    E1'                    E1'                    A1'
 Frequencies --   384.4903               384.4906               398.2434
 Red. masses --    27.9769                27.9769                27.9769
 Frc consts  --     2.4368                 2.4368                 2.6143
 IR Inten    --     1.5461                 1.5458                 0.0000

 - Thermochemistry -
 -------------------
 Temperature   298.150 Kelvin.  Pressure   1.00000 Atm.
 Atom     1 has atomic number 14 and mass  27.97693

 Molecular mass:   195.83850 amu.
 Principal axes and moments of inertia in atomic units:
                           1         2         3
     Eigenvalues --  1507.022791507.022792169.10021
           X            1.00000   0.00000   0.00000
           Y            0.00000   1.00000   0.00000
           Z            0.00000   0.00000   1.00000
 This molecule is an oblate symmetric top.
 Rotational symmetry number 10.
 Warning -- assumption of classical behavior for rotation
           may cause significant error
 Rotational temperatures (Kelvin)      0.05747     0.05747     0.03993
 Rotational constants (GHZ):           1.19755     1.19755     0.83202
 Zero-point vibrational energy      25999.9 (Joules/Mol)
                                    6.21413 (Kcal/Mol)
 Warning -- explicit consideration of  15 degrees of freedom as
           vibrations may cause significant error
 Vibrational temperatures:    268.16   268.16   319.02   319.02   375.04
          (Kelvin)            390.64   390.64   420.60   427.09   427.10
                              484.65   484.65   553.20   553.20   572.98

 Zero-point correction=                           0.009903 (Hartree/Particle)
 Thermal correction to Energy=                    0.019332
 Thermal correction to Enthalpy=                  0.020276
 Thermal correction to Gibbs Free Energy=        -0.023220
 Sum of electronic and zero-point Energies=          -2026.495955
 Sum of electronic and thermal Energies=             -2026.486526
 Sum of electronic and thermal Enthalpies=           -2026.485582
 Sum of electronic and thermal Free Energies=        -2026.529077

                     E (Thermal)             CV                S
                      KCal/Mol        Cal/Mol-Kelvin    Cal/Mol-Kelvin
 Total                   12.131             31.222             91.544
 Electronic               0.000              0.000              1.377
 Translational            0.889              2.981             41.722
 Rotational               0.889              2.981             25.402
 Vibrational             10.353             25.261             23.043
 Vibration     1          0.632              1.858              2.264
 Vibration     2          0.632              1.858              2.264
 Vibration     3          0.648              1.808              1.945
 Vibration     4          0.648              1.808              1.945
 Vibration     5          0.669              1.745              1.657
 Vibration     6          0.675              1.726              1.587
 Vibration     7          0.675              1.726              1.587
 Vibration     8          0.688              1.688              1.460
 Vibration     9          0.690              1.680              1.435
 Vibration    10          0.690              1.680              1.435
 Vibration    11          0.718              1.602              1.227
 Vibration    12          0.718              1.602              1.227
 Vibration    13          0.753              1.503              1.021
 Vibration    14          0.753              1.503              1.021
 Vibration    15          0.765              1.474              0.969

 Optimization completed.
    -- Stationary point found.
 Normal termination of Gaussian 09 at Mon Mar  5 12:16:25 2012.

 -----------------------------------------------------------------
 #N Geom=AllCheck Guess=TCheck SCRF=Check CCSD(T,E4T,FrzG4)/GTBas1
 -----------------------------------------------------------------

 si7-an-d
 --------
 Redundant internal coordinates taken from checkpoint file:
 S9L-ne-d-01.chk
 Charge = -1 Multiplicity = 2

 SCF Done:  E(UHF) =  -2022.33897087     A.U. after   15 cycles
 E2 =    -0.6627519399D+00 EUMP2 =    -0.20230017228079D+04
 CCSD(T)= -0.20230616684D+04
 5\PMP3-0=-2022.9889549\MP4SDQ=-2023.013774\CCSD=-2023.0054922\CCSD(T)=
 Normal termination of Gaussian 09 at Mon Mar  5 12:20:18 2012.

 ---------------------------------------------------------
 #N Geom=AllCheck Guess=TCheck SCRF=Check MP4=FrzG4/GTBas2
 ---------------------------------------------------------

 si7-an-d
 --------
 Redundant internal coordinates taken from checkpoint file:
 S9L-ne-d-01.chk
 Charge = -1 Multiplicity = 2

 SCF Done:  E(UHF) =  -2022.34343196     A.U. after   14 cycles
 E2 =    -0.6710704934D+00 EUMP2 =    -0.20230145024526D+04
 Normal termination of Gaussian 09 at Mon Mar  5 12:21:59 2012.

 ---------------------------------------------------------
 #N Geom=AllCheck Guess=TCheck SCRF=Check MP4=FrzG4/GTBas3
 ---------------------------------------------------------

 si7-an-d
 --------
 Redundant internal coordinates taken from checkpoint file:
 S9L-ne-d-01.chk
 Charge = -1 Multiplicity = 2

 SCF Done:  E(UHF) =  -2022.39049911     A.U. after   14 cycles
 E2 =    -0.8380777335D+00 EUMP2 =    -0.20232285768450D+04
 Normal termination of Gaussian 09 at Mon Mar  5 12:29:56 2012.

 -----------------------------------------------------------
 #N Geom=AllCheck Guess=TCheck SCRF=Check MP2=Full/GTLargeXP
 -----------------------------------------------------------

 si7-an-d
 --------
 Redundant internal coordinates taken from checkpoint file:
 S9L-ne-d-01.chk
 Charge = -1 Multiplicity = 2

 SCF Done:  E(UHF) =  -2022.52680752     A.U. after   15 cycles
 E2 =    -0.2913256650D+01 EUMP2 =    -0.20254400641712D+04
 Normal termination of Gaussian 09 at Mon Mar  5 12:47:38 2012.
 SCF Done:  E(UHF) =  -2022.56469536     A.U. after   11 cycles
 Normal termination of Gaussian 09 at Mon Mar  5 12:49:52 2012.

                         Standard orientation:
 ---------------------------------------------------------------------
 Center     Atomic      Atomic             Coordinates (Angstroms)
 Number     Number       Type             X           Y           Z
 ---------------------------------------------------------------------
      1         14           0        0.000000    2.083799    0.000000
      2         14           0        1.981811    0.643929    0.000000
      3         14           0        1.224827   -1.685829    0.000000
      4         14           0       -1.224827   -1.685829    0.000000
      5         14           0       -1.981811    0.643929    0.000000
      6         14           0        0.000000    0.000000    1.454070
      7         14           0        0.000000    0.000000   -1.454070
 ---------------------------------------------------------------------

 SCF Done:  E(UHF) =  -2022.57130902     A.U. after   11 cycles

 The electronic state is 2-A2".
 Alpha  occ. eigenvalues --  -68.65096 -68.65096 -68.64392 -68.64392 -68.64392
 Alpha  occ. eigenvalues --  -68.64391 -68.64391  -5.99617  -5.99616  -5.98943
 Alpha  occ. eigenvalues --   -5.98936  -5.98936  -5.98924  -5.98924  -4.10358
 Alpha  occ. eigenvalues --   -4.10350  -4.09839  -4.09839  -4.09838  -4.09838
 Alpha  occ. eigenvalues --   -4.09262  -4.09259  -4.09259  -4.09254  -4.09254
 Alpha  occ. eigenvalues --   -4.09139  -4.09139  -4.09115  -4.09115  -4.09094
 Alpha  occ. eigenvalues --   -4.09086  -4.09072  -4.09072  -4.09060  -4.09060
 Alpha  occ. eigenvalues --   -0.72882  -0.55197  -0.55197  -0.47706  -0.34618
 Alpha  occ. eigenvalues --   -0.34618  -0.33772  -0.24570  -0.20834  -0.20834
 Alpha  occ. eigenvalues --   -0.16066  -0.16066  -0.14405  -0.14405  -0.10773
 Alpha virt. eigenvalues --    0.10997   0.11016   0.11185   0.11185   0.12043
 Alpha virt. eigenvalues --    0.12113   0.12113   0.14049   0.14049   0.14653
 Alpha virt. eigenvalues --    0.14653   0.15361   0.15552   0.15552   0.15679

  Beta  occ. eigenvalues --  -68.64885 -68.64885 -68.64346 -68.64346 -68.64346
  Beta  occ. eigenvalues --  -68.64346 -68.64346  -5.99379  -5.99377  -5.98890
  Beta  occ. eigenvalues --   -5.98885  -5.98885  -5.98872  -5.98872  -4.09775
  Beta  occ. eigenvalues --   -4.09775  -4.09774  -4.09774  -4.09272  -4.09261
  Beta  occ. eigenvalues --   -4.09118  -4.09118  -4.09098  -4.09098  -4.09085
  Beta  occ. eigenvalues --   -4.09065  -4.09061  -4.09061  -4.09053  -4.09053
  Beta  occ. eigenvalues --   -4.09017  -4.09015  -4.09015  -4.09011  -4.09011
  Beta  occ. eigenvalues --   -0.72154  -0.54567  -0.54567  -0.45216  -0.34161
  Beta  occ. eigenvalues --   -0.34161  -0.32034  -0.19703  -0.19703  -0.16379
  Beta  occ. eigenvalues --   -0.16068  -0.16068  -0.14263  -0.14263
  Beta virt. eigenvalues --    0.10944   0.11025   0.11188   0.11188   0.12117
  Beta virt. eigenvalues --    0.12117   0.12117   0.13827   0.14056   0.14056
  Beta virt. eigenvalues --    0.14872   0.14872   0.15551   0.15551   0.15713

 Mulliken atomic charges:
              1
     1  Si  -0.140049
     2  Si  -0.140049
     3  Si  -0.140049
     4  Si  -0.140049
     5  Si  -0.140049
     6  Si  -0.149877
     7  Si  -0.149877
 Sum of Mulliken atomic charges =  -1.00000

 Dipole moment (field-independent basis, Debye):
    X=              0.0000    Y=              0.0000    Z=              0.0000  Tot=              0.0000
 Quadrupole moment (field-independent basis, Debye-Ang):
   XX=           -120.6511   YY=           -120.6511   ZZ=           -107.4948
   XY=              0.0000   XZ=              0.0000   YZ=              0.0000

 Normal termination of Gaussian 09 at Mon Mar  5 13:02:45 2012.
