 Gaussian 09, Revision A.02,
 Gaussian 09:  AM64L-G09RevA.02 11-Jun-2009

 -----------------------
 # G4 scfcyc=500 scf=xqc
 -----------------------

 ----
 s3-c
 ----
 Symbolic Z-matrix:
 Charge =  1 Multiplicity = 2

 SCF Done:  E(UB3LYP) =  -868.080605189     A.U. after   23 cycles
 SCF Done:  E(UB3LYP) =  -868.080609859     A.U. after   11 cycles
 SCF Done:  E(UB3LYP) =  -868.080614492     A.U. after   12 cycles
 Optimization completed.
    -- Stationary point found.
 Normal termination of Gaussian 09 at Wed Jan  4 10:20:46 2012.

 ----------------------------------------------------------
 #N Geom=AllCheck Guess=TCheck SCRF=Check B3LYP/GTBas3 Freq
 ----------------------------------------------------------

 s3-c
 ----
 Redundant internal coordinates taken from checkpoint file:
 S9L-ne-d-01.chk
 Charge =  1 Multiplicity = 2

 SCF Done:  E(UB3LYP) =  -868.080614492     A.U. after    1 cycles

  Exact polarizability:  50.996   0.000 100.911   0.000   0.000  86.288
 Approx polarizability:  89.176   0.000 237.091   0.000   0.000 220.516

                     1                      2                      3
                    A1                     B2                     A1
 Frequencies --   196.9388               266.4013               467.9423
 Red. masses --    27.9769                27.9769                27.9769
 Frc consts  --     0.6393                 1.1698                 3.6094
 IR Inten    --     8.9601                 0.8298                 2.2930

 - Thermochemistry -
 -------------------
 Temperature   298.150 Kelvin.  Pressure   1.00000 Atm.
 Atom     1 has atomic number 14 and mass  27.97693

 Molecular mass:    83.93079 amu.
 Principal axes and moments of inertia in atomic units:
                           1         2         3
     Eigenvalues --   230.56935 315.34450 545.91385
           X            0.00000   0.00000   1.00000
           Y            1.00000   0.00000   0.00000
           Z            0.00000   1.00000   0.00000
 This molecule is an asymmetric top.
 Rotational symmetry number  2.
 Rotational temperatures (Kelvin)      0.37565     0.27466     0.15866
 Rotational constants (GHZ):           7.82732     5.72308     3.30591
 Zero-point vibrational energy       5570.3 (Joules/Mol)
                                    1.33133 (Kcal/Mol)
 Warning -- explicit consideration of   3 degrees of freedom as
           vibrations may cause significant error
 Vibrational temperatures:    283.35   383.29   673.26
          (Kelvin)

 Zero-point correction=                           0.002122 (Hartree/Particle)
 Thermal correction to Energy=                    0.006233
 Thermal correction to Enthalpy=                  0.007177
 Thermal correction to Gibbs Free Energy=        -0.025564
 Sum of electronic and zero-point Energies=           -868.078493
 Sum of electronic and thermal Energies=              -868.074382
 Sum of electronic and thermal Enthalpies=            -868.073438
 Sum of electronic and thermal Free Energies=         -868.106178

                     E (Thermal)             CV                S
                      KCal/Mol        Cal/Mol-Kelvin    Cal/Mol-Kelvin
 Total                    3.911             10.862             68.908
 Electronic               0.000              0.000              1.377
 Translational            0.889              2.981             39.196
 Rotational               0.889              2.981             23.810
 Vibrational              2.134              4.900              4.524
 Vibration     1          0.636              1.844              2.162
 Vibration     2          0.672              1.735              1.619
 Vibration     3          0.825              1.321              0.743

 Optimization completed.
    -- Stationary point found.
 Normal termination of Gaussian 09 at Wed Jan  4 10:21:03 2012.

 -----------------------------------------------------------------
 #N Geom=AllCheck Guess=TCheck SCRF=Check CCSD(T,E4T,FrzG4)/GTBas1
 -----------------------------------------------------------------

 s3-c
 ----
 Redundant internal coordinates taken from checkpoint file:
 S9L-ne-d-01.chk
 Charge =  1 Multiplicity = 2

 SCF Done:  E(UHF) =  -866.358849999     A.U. after   19 cycles
 E2 =    -0.1959874118D+00 EUMP2 =    -0.86655483741084D+03
 CCSD(T)= -0.86661292357D+03
 0=-866.5989722\MP4SDQ=-866.58829\CCSD=-866.5951476\CCSD(T)=-866.612923
 Normal termination of Gaussian 09 at Wed Jan  4 10:21:09 2012.

 ---------------------------------------------------------
 #N Geom=AllCheck Guess=TCheck SCRF=Check MP4=FrzG4/GTBas2
 ---------------------------------------------------------

 s3-c
 ----
 Redundant internal coordinates taken from checkpoint file:
 S9L-ne-d-01.chk
 Charge =  1 Multiplicity = 2

 SCF Done:  E(UHF) =  -866.360727741     A.U. after   16 cycles
 E2 =    -0.1972639397D+00 EUMP2 =    -0.86655799168043D+03
 Normal termination of Gaussian 09 at Wed Jan  4 10:21:12 2012.

 ---------------------------------------------------------
 #N Geom=AllCheck Guess=TCheck SCRF=Check MP4=FrzG4/GTBas3
 ---------------------------------------------------------

 s3-c
 ----
 Redundant internal coordinates taken from checkpoint file:
 S9L-ne-d-01.chk
 Charge =  1 Multiplicity = 2

 SCF Done:  E(UHF) =  -866.382212621     A.U. after   17 cycles
 E2 =    -0.2377430360D+00 EUMP2 =    -0.86661995565715D+03
 Normal termination of Gaussian 09 at Wed Jan  4 10:21:21 2012.

 -----------------------------------------------------------
 #N Geom=AllCheck Guess=TCheck SCRF=Check MP2=Full/GTLargeXP
 -----------------------------------------------------------

 s3-c
 ----
 Redundant internal coordinates taken from checkpoint file:
 S9L-ne-d-01.chk
 Charge =  1 Multiplicity = 2

 SCF Done:  E(UHF) =  -866.440248517     A.U. after   15 cycles
 E2 =    -0.1121054879D+01 EUMP2 =    -0.86756130339585D+03
 Normal termination of Gaussian 09 at Wed Jan  4 10:25:10 2012.
 SCF Done:  E(UHF) =  -866.458299800     A.U. after   16 cycles
 Normal termination of Gaussian 09 at Wed Jan  4 10:25:59 2012.

                         Standard orientation:
 ---------------------------------------------------------------------
 Center     Atomic      Atomic             Coordinates (Angstroms)
 Number     Number       Type             X           Y           Z
 ---------------------------------------------------------------------
      1         14           0        0.000000    1.256258   -0.620192
      2         14           0        0.000000   -1.256258   -0.620192
      3         14           0        0.000000    0.000000    1.240384
 ---------------------------------------------------------------------

 SCF Done:  E(UHF) =  -866.460806243     A.U. after   12 cycles

 The electronic state is 2-B2.
 Alpha  occ. eigenvalues --  -69.04322 -69.04322 -69.02403  -6.38584  -6.38579
 Alpha  occ. eigenvalues --   -6.37134  -4.49437  -4.49429  -4.48530  -4.48528
 Alpha  occ. eigenvalues --   -4.47941  -4.47910  -4.47846  -4.47754  -4.47182
 Alpha  occ. eigenvalues --   -1.00306  -0.74498  -0.73325  -0.56398  -0.54942
 Alpha  occ. eigenvalues --   -0.51844
 Alpha virt. eigenvalues --   -0.21920  -0.16489  -0.16046  -0.09194  -0.08079
 Alpha virt. eigenvalues --   -0.07638  -0.06854  -0.06455  -0.05274  -0.04452
 Alpha virt. eigenvalues --   -0.04014  -0.03328  -0.03205  -0.02548  -0.01484

  Beta  occ. eigenvalues --  -69.04308 -69.04308 -69.01577  -6.38573  -6.38561
  Beta  occ. eigenvalues --   -6.36195  -4.49295  -4.49260  -4.48709  -4.48705
  Beta  occ. eigenvalues --   -4.47824  -4.47816  -4.46308  -4.45810  -4.45747
  Beta  occ. eigenvalues --   -0.96511  -0.73173  -0.63371  -0.54710  -0.51254
  Beta virt. eigenvalues --   -0.22134  -0.20935  -0.17753  -0.13426  -0.09808
  Beta virt. eigenvalues --   -0.07701  -0.07129  -0.06421  -0.05862  -0.05153
  Beta virt. eigenvalues --   -0.04060  -0.03873  -0.03374  -0.03048  -0.01915

 Mulliken atomic charges:
              1
     1  Si   0.367318
     2  Si   0.367318
     3  Si   0.265365
 Sum of Mulliken atomic charges =   1.00000

 Dipole moment (field-independent basis, Debye):
    X=              0.0000    Y=              0.0000    Z=             -0.0050  Tot=              0.0050
 Quadrupole moment (field-independent basis, Debye-Ang):
   XX=            -35.4210   YY=            -25.7170   ZZ=            -27.5988
   XY=              0.0000   XZ=              0.0000   YZ=              0.0000

 Normal termination of Gaussian 09 at Wed Jan  4 10:31:41 2012.
