 Gaussian 09, Revision A.02,
 Gaussian 09:  AM64L-G09RevA.02 11-Jun-2009

 -----------------------
 # G4 scfcyc=500 scf=xqc
 -----------------------

 -------
 si2-a-d
 -------
 Symbolic Z-matrix:
 Charge = -1 Multiplicity = 2

 SCF Done:  E(UB3LYP) =  -578.923987987     A.U. after   11 cycles
 SCF Done:  E(UB3LYP) =  -578.924587282     A.U. after   10 cycles
 SCF Done:  E(UB3LYP) =  -578.924638408     A.U. after    8 cycles
 Optimization completed.
    -- Stationary point found.
 Normal termination of Gaussian 09 at Mon Mar  5 11:52:48 2012.

 ----------------------------------------------------------
 #N Geom=AllCheck Guess=TCheck SCRF=Check B3LYP/GTBas3 Freq
 ----------------------------------------------------------

 si2-a-d
 -------
 Redundant internal coordinates taken from checkpoint file:
 S9L-ne-d-01.chk
 Charge = -1 Multiplicity = 2

 SCF Done:  E(UB3LYP) =  -578.924638408     A.U. after    1 cycles

  Exact polarizability: -10.248   0.000 -10.248   0.000   0.000 122.698
 Approx polarizability:  88.645   0.000  88.645   0.000   0.000 360.982

                     1
                    SGG
 Frequencies --   592.0357
 Red. masses --    27.9769
 Frc consts  --     5.7776
 IR Inten    --     0.0000

 - Thermochemistry -
 -------------------
 Temperature   298.150 Kelvin.  Pressure   1.00000 Atm.
 Atom     1 has atomic number 14 and mass  27.97693

 Molecular mass:    55.95386 amu.
 Principal axes and moments of inertia in atomic units:
                           1         2         3
     Eigenvalues --     0.00000 221.50264 221.50264
           X            0.00000   1.00000   0.00000
           Y            0.00000   0.00000   1.00000
           Z            1.00000   0.00000   0.00000
 This molecule is a prolate symmetric top.
 Rotational symmetry number  2.
 Rotational temperature (Kelvin)      0.39103
 Rotational constant (GHZ):           8.147719
 Zero-point vibrational energy       3541.2 (Joules/Mol)
                                    0.84636 (Kcal/Mol)
 Warning -- explicit consideration of   1 degrees of freedom as
           vibrations may cause significant error
 Vibrational temperatures:    851.81
          (Kelvin)

 Zero-point correction=                           0.001349 (Hartree/Particle)
 Thermal correction to Energy=                    0.003874
 Thermal correction to Enthalpy=                  0.004818
 Thermal correction to Gibbs Free Energy=        -0.020662
 Sum of electronic and zero-point Energies=           -578.923290
 Sum of electronic and thermal Energies=              -578.920765
 Sum of electronic and thermal Enthalpies=            -578.919821
 Sum of electronic and thermal Free Energies=         -578.945300

                     E (Thermal)             CV                S
                      KCal/Mol        Cal/Mol-Kelvin    Cal/Mol-Kelvin
 Total                    2.431              6.017             53.626
 Electronic               0.000              0.000              1.377
 Translational            0.889              2.981             37.987
 Rotational               0.592              1.987             13.798
 Vibrational              0.950              1.049              0.464
 Vibration     1          0.950              1.049              0.464

 Optimization completed.
    -- Stationary point found.
 Normal termination of Gaussian 09 at Mon Mar  5 11:53:01 2012.

 -----------------------------------------------------------------
 #N Geom=AllCheck Guess=TCheck SCRF=Check CCSD(T,E4T,FrzG4)/GTBas1
 -----------------------------------------------------------------

 si2-a-d
 -------
 Redundant internal coordinates taken from checkpoint file:
 S9L-ne-d-01.chk
 Charge = -1 Multiplicity = 2

 SCF Done:  E(UHF) =  -577.737204785     A.U. after   11 cycles
 E2 =    -0.1661460851D+00 EUMP2 =    -0.57790335087004D+03
 CCSD(T)= -0.57793512616D+03
 SD=-577.9226408\CCSD(T)=-577.9351262\S2=0.78162\S2-1=0.759658\S2A=0.75
 Normal termination of Gaussian 09 at Mon Mar  5 11:53:06 2012.

 ---------------------------------------------------------
 #N Geom=AllCheck Guess=TCheck SCRF=Check MP4=FrzG4/GTBas2
 ---------------------------------------------------------

 si2-a-d
 -------
 Redundant internal coordinates taken from checkpoint file:
 S9L-ne-d-01.chk
 Charge = -1 Multiplicity = 2

 SCF Done:  E(UHF) =  -577.745413979     A.U. after   13 cycles
 E2 =    -0.1689267496D+00 EUMP2 =    -0.57791434072830D+03
 Normal termination of Gaussian 09 at Mon Mar  5 11:53:10 2012.

 ---------------------------------------------------------
 #N Geom=AllCheck Guess=TCheck SCRF=Check MP4=FrzG4/GTBas3
 ---------------------------------------------------------

 si2-a-d
 -------
 Redundant internal coordinates taken from checkpoint file:
 S9L-ne-d-01.chk
 Charge = -1 Multiplicity = 2

 SCF Done:  E(UHF) =  -577.743777366     A.U. after   12 cycles
 E2 =    -0.2111029721D+00 EUMP2 =    -0.57795488033840D+03
 Normal termination of Gaussian 09 at Mon Mar  5 11:53:16 2012.

 -----------------------------------------------------------
 #N Geom=AllCheck Guess=TCheck SCRF=Check MP2=Full/GTLargeXP
 -----------------------------------------------------------

 si2-a-d
 -------
 Redundant internal coordinates taken from checkpoint file:
 S9L-ne-d-01.chk
 Charge = -1 Multiplicity = 2

 SCF Done:  E(UHF) =  -577.790390430     A.U. after   13 cycles
 E2 =    -0.8040238511D+00 EUMP2 =    -0.57859441428139D+03
 Normal termination of Gaussian 09 at Mon Mar  5 11:54:02 2012.
 SCF Done:  E(UHF) =  -577.802554629     A.U. after   11 cycles
 Normal termination of Gaussian 09 at Mon Mar  5 11:54:16 2012.

                         Standard orientation:
 ---------------------------------------------------------------------
 Center     Atomic      Atomic             Coordinates (Angstroms)
 Number     Number       Type             X           Y           Z
 ---------------------------------------------------------------------
      1         14           0        0.000000    0.000000    1.052872
      2         14           0        0.000000    0.000000   -1.052872
 ---------------------------------------------------------------------

 SCF Done:  E(UHF) =  -577.803803796     A.U. after   10 cycles

 The electronic state is 2-SGG.
 Alpha  occ. eigenvalues --  -68.59130 -68.59129  -5.93749  -5.93700  -4.04841
 Alpha  occ. eigenvalues --   -4.04625  -4.03810  -4.03810  -4.03786  -4.03786
 Alpha  occ. eigenvalues --   -0.51490  -0.29007  -0.14938  -0.07742  -0.07742
 Alpha virt. eigenvalues --    0.12264   0.14622   0.15267   0.15267   0.15961
 Alpha virt. eigenvalues --    0.15961   0.18973   0.23146   0.23146   0.23709
 Alpha virt. eigenvalues --    0.29341   0.34524   0.39308   0.39308   0.43138

  Beta  occ. eigenvalues --  -68.58811 -68.58811  -5.93447  -5.93415  -4.03640
  Beta  occ. eigenvalues --   -4.03640  -4.03620  -4.03620  -4.02963  -4.02770
  Beta  occ. eigenvalues --   -0.44621  -0.21052  -0.07277  -0.07277
  Beta virt. eigenvalues --    0.12319   0.13371   0.15389   0.15389   0.16015
  Beta virt. eigenvalues --    0.16015   0.17462   0.20434   0.23927   0.24039
  Beta virt. eigenvalues --    0.24039   0.30422   0.37047   0.40210   0.40210

 Mulliken atomic charges:
              1
     1  Si  -0.500000
     2  Si  -0.500000
 Sum of Mulliken atomic charges =  -1.00000

 Dipole moment (field-independent basis, Debye):
    X=              0.0000    Y=              0.0000    Z=              0.0000  Tot=              0.0000
 Quadrupole moment (field-independent basis, Debye-Ang):
   XX=            -39.7037   YY=            -39.7037   ZZ=            -38.2218
   XY=              0.0000   XZ=              0.0000   YZ=              0.0000

 Normal termination of Gaussian 09 at Mon Mar  5 11:55:47 2012.
