 Gaussian 09, Revision A.02,
 Gaussian 09:  AM64L-G09RevA.02 11-Jun-2009

 -----------------------
 # G4 scfcyc=500 scf=xqc
 -----------------------

 -----
 si5-n
 -----
 Symbolic Z-matrix:
 Charge =  0 Multiplicity = 1

 SCF Done:  E(RB3LYP) =  -1447.40815561     A.U. after   12 cycles
 SCF Done:  E(RB3LYP) =  -1447.40819561     A.U. after    8 cycles
 SCF Done:  E(RB3LYP) =  -1447.40820605     A.U. after    8 cycles
 SCF Done:  E(RB3LYP) =  -1447.40820691     A.U. after    7 cycles
 Optimization completed.
    -- Stationary point found.
 Normal termination of Gaussian 09 at Wed Dec 21 10:10:10 2011.

 ----------------------------------------------------------
 #N Geom=AllCheck Guess=TCheck SCRF=Check B3LYP/GTBas3 Freq
 ----------------------------------------------------------

 si5-n
 -----
 Redundant internal coordinates taken from checkpoint file:
 S9L-ne-d-01.chk
 Charge =  0 Multiplicity = 1

 SCF Done:  E(RB3LYP) =  -1447.40820691     A.U. after    1 cycles

  Exact polarizability: 161.551   0.000 161.548   0.000   0.000 152.247
 Approx polarizability: 463.538   0.000 463.538   0.000   0.000 459.496

                     1                      2                      3
                    E'                     E'                     A1'
 Frequencies --   174.6612               174.6618               224.7330
 Red. masses --    27.9769                27.9769                27.9769
 Frc consts  --     0.5029                 0.5029                 0.8325
 IR Inten    --     0.6859                 0.6860                 0.0000

                     4                      5                      6
                    E"                     E"                     A2"
 Frequencies --   347.2581               347.2613               386.0185
 Red. masses --    27.9769                27.9769                27.9769
 Frc consts  --     1.9877                 1.9878                 2.4562
 IR Inten    --     0.0000                 0.0000                 5.3873

                     7                      8                      9
                    E'                     E'                     A1'
 Frequencies --   439.0197               439.0198               463.3368
 Red. masses --    27.9769                27.9769                27.9769
 Frc consts  --     3.1770                 3.1770                 3.5387
 IR Inten    --     3.3489                 3.3498                 0.0000

 - Thermochemistry -
 -------------------
 Temperature   298.150 Kelvin.  Pressure   1.00000 Atm.
 Atom     1 has atomic number 14 and mass  27.97693

 Molecular mass:   139.88464 amu.
 Principal axes and moments of inertia in atomic units:
                           1         2         3
     Eigenvalues --   918.42869 918.42869 964.82534
           X           -0.56063   0.82807   0.00000
           Y            0.82807   0.56063   0.00000
           Z            0.00000   0.00000   1.00000
 This molecule is an oblate symmetric top.
 Rotational symmetry number  6.
 Warning -- assumption of classical behavior for rotation
           may cause significant error
 Rotational temperatures (Kelvin)      0.09431     0.09431     0.08977
 Rotational constants (GHZ):           1.96503     1.96503     1.87054
 Zero-point vibrational energy      17919.9 (Joules/Mol)
                                    4.28295 (Kcal/Mol)
 Warning -- explicit consideration of   9 degrees of freedom as
           vibrations may cause significant error
 Vibrational temperatures:    251.30   251.30   323.34   499.63   499.63
          (Kelvin)            555.39   631.65   631.65   666.64

 Zero-point correction=                           0.006825 (Hartree/Particle)
 Thermal correction to Energy=                    0.013235
 Thermal correction to Enthalpy=                  0.014179
 Thermal correction to Gibbs Free Energy=        -0.022798
 Sum of electronic and zero-point Energies=          -1447.401382
 Sum of electronic and thermal Energies=             -1447.394972
 Sum of electronic and thermal Enthalpies=           -1447.394028
 Sum of electronic and thermal Free Energies=        -1447.431005

                     E (Thermal)             CV                S
                      KCal/Mol        Cal/Mol-Kelvin    Cal/Mol-Kelvin
 Total                    8.305             20.276             77.826
 Electronic               0.000              0.000              0.000
 Translational            0.889              2.981             40.719
 Rotational               0.889              2.981             24.628
 Vibrational              6.528             14.314             12.479
 Vibration     1          0.627              1.874              2.385
 Vibration     2          0.627              1.874              2.385
 Vibration     3          0.649              1.803              1.921
 Vibration     4          0.725              1.581              1.179
 Vibration     5          0.725              1.581              1.179
 Vibration     6          0.755              1.500              1.015
 Vibration     7          0.799              1.385              0.830
 Vibration     8          0.799              1.385              0.830
 Vibration     9          0.821              1.331              0.756

 Optimization completed.
    -- Stationary point found.
 Normal termination of Gaussian 09 at Wed Dec 21 10:10:45 2011.

 -----------------------------------------------------------------
 #N Geom=AllCheck Guess=TCheck SCRF=Check CCSD(T,E4T,FrzG4)/GTBas1
 -----------------------------------------------------------------

 si5-n
 -----
 Redundant internal coordinates taken from checkpoint file:
 S9L-ne-d-01.chk
 Charge =  0 Multiplicity = 1

 SCF Done:  E(RHF) =  -1444.42879686     A.U. after   11 cycles
 E2 =    -0.4638351136D+00 EUMP2 =    -0.14448926319784D+04
 CCSD(T)= -0.14449508675D+04
 44.9077731\CCSD(T)=-1444.9508675\RMSD=8.301e-09\PG=D03H [C3(Si1.Si1),3
 Normal termination of Gaussian 09 at Wed Dec 21 10:11:04 2011.

 ---------------------------------------------------------
 #N Geom=AllCheck Guess=TCheck SCRF=Check MP4=FrzG4/GTBas2
 ---------------------------------------------------------

 si5-n
 -----
 Redundant internal coordinates taken from checkpoint file:
 S9L-ne-d-01.chk
 Charge =  0 Multiplicity = 1

 SCF Done:  E(RHF) =  -1444.43117145     A.U. after   11 cycles
 E2 =    -0.4674064636D+00 EUMP2 =    -0.14448985779118D+04
 Normal termination of Gaussian 09 at Wed Dec 21 10:11:15 2011.

 ---------------------------------------------------------
 #N Geom=AllCheck Guess=TCheck SCRF=Check MP4=FrzG4/GTBas3
 ---------------------------------------------------------

 si5-n
 -----
 Redundant internal coordinates taken from checkpoint file:
 S9L-ne-d-01.chk
 Charge =  0 Multiplicity = 1

 SCF Done:  E(RHF) =  -1444.46921250     A.U. after   12 cycles
 E2 =    -0.5741428467D+00 EUMP2 =    -0.14450433553466D+04
 Normal termination of Gaussian 09 at Wed Dec 21 10:12:00 2011.

 -----------------------------------------------------------
 #N Geom=AllCheck Guess=TCheck SCRF=Check MP2=Full/GTLargeXP
 -----------------------------------------------------------

 si5-n
 -----
 Redundant internal coordinates taken from checkpoint file:
 S9L-ne-d-01.chk
 Charge =  0 Multiplicity = 1

 SCF Done:  E(RHF) =  -1444.56536191     A.U. after   11 cycles
 E2 =    -0.2055559923D+01 EUMP2 =    -0.14466209218380D+04
 Normal termination of Gaussian 09 at Wed Dec 21 10:15:21 2011.
 SCF Done:  E(RHF) =  -1444.59317717     A.U. after   10 cycles
 Normal termination of Gaussian 09 at Wed Dec 21 10:16:30 2011.

                         Standard orientation:
 ---------------------------------------------------------------------
 Center     Atomic      Atomic             Coordinates (Angstroms)
 Number     Number       Type             X           Y           Z
 ---------------------------------------------------------------------
      1         14           0        0.000000    1.794175    0.000000
      2         14           0        1.553801   -0.897088    0.000000
      3         14           0       -1.553801   -0.897088    0.000000
      4         14           0        0.000000    0.000000    1.477193
      5         14           0        0.000000    0.000000   -1.477193
 ---------------------------------------------------------------------

 SCF Done:  E(RHF) =  -1444.59761889     A.U. after    9 cycles

 The electronic state is 1-A1'.
 Alpha  occ. eigenvalues --  -68.80721 -68.80721 -68.80721 -68.78375 -68.78375
 Alpha  occ. eigenvalues --   -6.15160  -6.15158  -6.15158  -6.13233  -6.13230
 Alpha  occ. eigenvalues --   -4.25277  -4.25277  -4.25275  -4.25247  -4.25241
 Alpha  occ. eigenvalues --   -4.25241  -4.25230  -4.25230  -4.25230  -4.23544
 Alpha  occ. eigenvalues --   -4.23537  -4.23443  -4.23443  -4.23443  -4.23443
 Alpha  occ. eigenvalues --   -0.83277  -0.60514  -0.59804  -0.59804  -0.38471
 Alpha  occ. eigenvalues --   -0.33371  -0.33371  -0.33275  -0.29512  -0.29512
 Alpha virt. eigenvalues --   -0.01834  -0.00570  -0.00570   0.03046   0.03150
 Alpha virt. eigenvalues --    0.03866   0.03866   0.04500   0.05147   0.05698
 Alpha virt. eigenvalues --    0.05698   0.05993   0.05993   0.07162   0.07162

 Mulliken atomic charges:
              1
     1  Si   0.057497
     2  Si   0.057497
     3  Si   0.057497
     4  Si  -0.086246
     5  Si  -0.086246
 Sum of Mulliken atomic charges =   0.00000

 Dipole moment (field-independent basis, Debye):
    X=              0.0000    Y=              0.0000    Z=              0.0000  Tot=              0.0000
 Quadrupole moment (field-independent basis, Debye-Ang):
   XX=            -68.7693   YY=            -68.7693   ZZ=            -64.8844
   XY=              0.0000   XZ=              0.0000   YZ=              0.0000

 Normal termination of Gaussian 09 at Wed Dec 21 10:23:03 2011.
