 Gaussian 03, Revision E.01,

 --------------------------------------
 # hf/6-311G(d) freq scfcyc=500 scf=xqc
 --------------------------------------

 -----
 si -n
 -----
 Symbolic Z-matrix:
 Charge =  1 Multiplicity = 2

 SCF Done:  E(UHF) =  -288.569737843     A.U. after   10 cycles
 Optimization completed.
    -- Stationary point found.
 Normal termination of Gaussian 03 at Sat Jun 18 23:57:09 2011.
 Gaussian 03:  AM64L-G03RevE.01 11-Sep-2007

 ----------------------------------------------------------------------
 # b3lyp/6-311+G(d) opt=(readfc,noeigentest,maxcycle=500) freq scfcyc=5
 00 optcyc=500 scf=xqc geom=allcheck guess=read
 ----------------------------------------------------------------------

 -----
 No Z-matrix found on checkpoint file.
 Cartesian coordinates read from the checkpoint file:
 S9L-ne-d-01.chk
 Charge =  1 Multiplicity = 2

 SCF Done:  E(UB+HF-LYP) =  -289.096047709     A.U. after    8 cycles
 Optimization completed.
    -- Stationary point found.
 Normal termination of Gaussian 03 at Sat Jun 18 23:57:49 2011.

 --------------------------------------------------------------------
 #N Geom=AllCheck Guess=Read SCRF=Check GenChk UB3LYP/6-311+G(d) Freq
 --------------------------------------------------------------------

 -----
 No Z-matrix found on checkpoint file.
 Cartesian coordinates read from the checkpoint file:
 S9L-ne-d-01.chk
 Charge =  1 Multiplicity = 2

                         Standard orientation:
 ---------------------------------------------------------------------
 Center     Atomic     Atomic              Coordinates (Angstroms)
 Number     Number      Type              X           Y           Z
 ---------------------------------------------------------------------
    1         14             0        0.000000    0.000000    0.000000
 ---------------------------------------------------------------------

 SCF Done:  E(UB+HF-LYP) =  -289.096047709     A.U. after    1 cycles

 Unable to determine electronic state:  partially filled degenerate orbitals.
 Alpha  occ. eigenvalues --  -66.50639  -5.66476  -4.02480  -4.02480  -4.02076
 Alpha  occ. eigenvalues --   -0.74837  -0.47800
 Alpha virt. eigenvalues --   -0.40307  -0.40307  -0.15466  -0.09990  -0.09700
 Alpha virt. eigenvalues --   -0.09700   0.08602   0.08858   0.08858   0.16121
 Alpha virt. eigenvalues --    0.24428   0.24428   0.24763   0.25939   0.25939

  Beta  occ. eigenvalues --  -66.50204  -5.66057  -4.02257  -4.02257  -4.00576
  Beta  occ. eigenvalues --   -0.71084
  Beta virt. eigenvalues --   -0.39205  -0.39205  -0.35522  -0.15145  -0.09684
  Beta virt. eigenvalues --   -0.09684  -0.09156   0.09057   0.09057   0.10364
  Beta virt. eigenvalues --    0.17169   0.26199   0.26199   0.29539   0.29539

 Mulliken atomic charges:
              1
     1  Si   1.000000
 Sum of Mulliken charges=   1.00000

 Dipole moment (field-independent basis, Debye):
    X=     0.0000    Y=     0.0000    Z=     0.0000  Tot=     0.0000
 Quadrupole moment (field-independent basis, Debye-Ang):
   XX=    -7.6463   YY=   -11.3058   ZZ=    -7.6463
   XY=     0.0000   XZ=     0.0000   YZ=     0.0000

  Exact polarizability:  14.381   0.000  14.785   0.000   0.000  14.381
 Approx polarizability:  21.289   0.000  14.940   0.000   0.000  21.289

 - Thermochemistry -
 -------------------
 Temperature   298.150 Kelvin.  Pressure   1.00000 Atm.
 Atom  1 has atomic number 14 and mass  27.97693
 Molecular mass:    27.97693 amu.
 Zero-point vibrational energy          0.0 (Joules/Mol)
                                    0.00000 (Kcal/Mol)
 Vibrational temperatures:
          (Kelvin)

 Zero-point correction=                           0.000000 (Hartree/Particle)
 Thermal correction to Energy=                    0.001416
 Thermal correction to Enthalpy=                  0.002360
 Thermal correction to Gibbs Free Energy=        -0.015361
 Sum of electronic and zero-point Energies=           -289.096048
 Sum of electronic and thermal Energies=              -289.094631
 Sum of electronic and thermal Enthalpies=            -289.093687
 Sum of electronic and thermal Free Energies=         -289.111409

                     E (Thermal)             CV                S
                      KCal/Mol        Cal/Mol-Kelvin    Cal/Mol-Kelvin
 Total                    0.889              2.981             37.299
 Electronic               0.000              0.000              1.377
 Translational            0.889              2.981             35.921
 Rotational               0.000              0.000              0.000
 Vibrational              0.000              0.000              0.000

 Optimization completed.
    -- Stationary point found.
 Normal termination of Gaussian 03 at Sat Jun 18 23:58:35 2011.
