 Gaussian 03, Revision E.01,

 ----------------------------------------------------------------------
 # b3lyp/LANL2DZ opt=(calcall,noeigentest,maxcycle=500) scfcyc=500 scf=
 xqc
 ----------------------------------------------------------------------

 -------
 si2-n-t
 -------
 Symbolic Z-matrix:
 Charge =  0 Multiplicity = 3

 SCF Done:  E(UB+HF-LYP) =  -3.76346867804     A.U. after    7 cycles
 Optimization completed.
    -- Stationary point found.
 Normal termination of Gaussian 03 at Tue Apr 12 17:17:10 2011.

 ----------------------------------------------------------------------
 # b3lyp/6-31G(d) opt=(readfc,noeigentest,maxcycle=500) freq scfcyc=500
  optcyc=500 geom=allcheck guess=read scf=xqc
 ----------------------------------------------------------------------

 -------
 No Z-matrix found on checkpoint file.
 Cartesian coordinates read from the checkpoint file:
 S9L-ne-d-01.chk
 Charge =  0 Multiplicity = 3

 SCF Done:  E(UB+HF-LYP) =  -289.371734867     A.U. after   11 cycles
 Optimization completed.
 Normal termination of Gaussian 03 at Tue Apr 12 17:17:47 2011.

 ------------------------------------------------------------------
 #N Geom=AllCheck Guess=Read SCRF=Check GenChk UB3LYP/6-31G(d) Freq
 ------------------------------------------------------------------

 -------
 No Z-matrix found on checkpoint file.
 Cartesian coordinates read from the checkpoint file:
 S9L-ne-d-01.chk
 Charge =  0 Multiplicity = 3

 SCF Done:  E(UB+HF-LYP) =  -289.371734867     A.U. after    1 cycles
 Normal termination of Gaussian 03 at Tue Apr 12 17:18:30 2011.

 ----------------------------------------------------------------------
 # b3lyp/6-311G(d) opt=(readfc,noeigentest,maxcycle=500) freq scfcyc=50
 0 optcyc=500 geom=allcheck guess=read scf=xqc
 ----------------------------------------------------------------------

 -------
 No Z-matrix found on checkpoint file.
 Cartesian coordinates read from the checkpoint file:
 S9L-ne-d-01.chk
 Charge =  0 Multiplicity = 3

 SCF Done:  E(UB+HF-LYP) =  -289.393820798     A.U. after    8 cycles
 Normal termination of Gaussian 03 at Tue Apr 12 17:19:07 2011.

 -------------------------------------------------------------------
 #N Geom=AllCheck Guess=Read SCRF=Check GenChk UB3LYP/6-311G(d) Freq
 -------------------------------------------------------------------

 -------
 No Z-matrix found on checkpoint file.
 Cartesian coordinates read from the checkpoint file:
 S9L-ne-d-01.chk
 Charge =  0 Multiplicity = 3

 SCF Done:  E(UB+HF-LYP) =  -289.393820798     A.U. after    1 cycles
 Normal termination of Gaussian 03 at Tue Apr 12 17:19:49 2011.
 Gaussian 03:  AM64L-G03RevE.01 11-Sep-2007

 ----------------------------------------------------------------------
 # b3lyp/6-311+G(d) opt=(readfc,noeigentest,maxcycle=500) freq scfcyc=5
 00 optcyc=500 scf=xqc geom=allcheck guess=read
 ----------------------------------------------------------------------

 -------
 No Z-matrix found on checkpoint file.
 Cartesian coordinates read from the checkpoint file:
 S9L-ne-d-01.chk
 Charge =  0 Multiplicity = 3

 SCF Done:  E(UB+HF-LYP) =  -289.394168504     A.U. after    7 cycles
    -- Stationary point found.
 Normal termination of Gaussian 03 at Tue Apr 12 17:20:26 2011.

                         Standard orientation:
 ---------------------------------------------------------------------
 Center     Atomic     Atomic              Coordinates (Angstroms)
 Number     Number      Type              X           Y           Z
 ---------------------------------------------------------------------
    1         14             0        0.000000    0.000000    0.000000
 ---------------------------------------------------------------------

 SCF Done:  E(UB+HF-LYP) =  -289.394168504     A.U. after    1 cycles

 Unable to determine electronic state:  partially filled degenerate orbitals.
 Alpha  occ. eigenvalues --  -66.14291  -5.30845  -3.67012  -3.66660  -3.66660
 Alpha  occ. eigenvalues --   -0.45582  -0.19383  -0.19383
 Alpha virt. eigenvalues --   -0.12975   0.01398   0.04616   0.04616   0.04946
 Alpha virt. eigenvalues --    0.27831   0.27831   0.28278   0.39241   0.55440
 Alpha virt. eigenvalues --    0.55440   0.55974   0.55974   0.56769   1.19072

  Beta  occ. eigenvalues --  -66.13612  -5.30186  -3.66663  -3.65304  -3.65304
  Beta  occ. eigenvalues --   -0.39143
  Beta virt. eigenvalues --   -0.11219  -0.08290  -0.08290   0.02099   0.05110
  Beta virt. eigenvalues --    0.05718   0.05718   0.28818   0.30476   0.30476
  Beta virt. eigenvalues --    0.41526   0.59545   0.60426   0.60426   0.63317

 Mulliken atomic charges:
              1
     1  Si   0.000000
 Sum of Mulliken charges=   0.00000

 Dipole moment (field-independent basis, Debye):
    X=     0.0000    Y=     0.0000    Z=     0.0000  Tot=     0.0000
 Quadrupole moment (field-independent basis, Debye-Ang):
   XX=   -15.9059   YY=   -11.1690   ZZ=   -15.9059
   XY=     0.0000   XZ=     0.0000   YZ=     0.0000

  Exact polarizability:  25.895   0.000  17.898   0.000   0.000  25.895
 Approx polarizability:  25.674   0.000  27.438   0.000   0.000  25.674

 - Thermochemistry -
 -------------------
 Temperature   298.150 Kelvin.  Pressure   1.00000 Atm.
 Atom  1 has atomic number 14 and mass  27.97693
 Molecular mass:    27.97693 amu.
 Zero-point vibrational energy          0.0 (Joules/Mol)
                                    0.00000 (Kcal/Mol)
 Vibrational temperatures:
          (Kelvin)

 Zero-point correction=                           0.000000 (Hartree/Particle)
 Thermal correction to Energy=                    0.001416
 Thermal correction to Enthalpy=                  0.002360
 Thermal correction to Gibbs Free Energy=        -0.015744
 Sum of electronic and zero-point Energies=           -289.394169
 Sum of electronic and thermal Energies=              -289.392752
 Sum of electronic and thermal Enthalpies=            -289.391808
 Sum of electronic and thermal Free Energies=         -289.409913

                     E (Thermal)             CV                S
                      KCal/Mol        Cal/Mol-Kelvin    Cal/Mol-Kelvin
 Total                    0.889              2.981             38.104
 Electronic               0.000              0.000              2.183
 Translational            0.889              2.981             35.921
 Rotational               0.000              0.000              0.000
 Vibrational              0.000              0.000              0.000

 Optimization completed.
    -- Stationary point found.
 Normal termination of Gaussian 03 at Tue Apr 12 17:21:10 2011.
