 Gaussian 03, Revision E.01,

 --------------------------------------
 # hf/6-311G(d) freq scfcyc=500 scf=xqc
 --------------------------------------

 ------
 si10-c
 ------
 Symbolic Z-matrix:
 Charge =  1 Multiplicity = 2

 SCF Done:  E(UHF) =  -2888.87730483     A.U. after   53 cycles
 Normal termination of Gaussian 03 at Fri Jun 17 17:08:54 2011.
 Gaussian 03:  AM64L-G03RevE.01 11-Sep-2007

 ----------------------------------------------------------------------
 # b3lyp/6-311+G(d) opt=(readfc,noeigentest,maxcycle=500) freq scfcyc=5
 00 optcyc=500 scf=xqc geom=allcheck guess=read
 ----------------------------------------------------------------------

 ------
 No Z-matrix found on checkpoint file.
 Cartesian coordinates read from the checkpoint file:
 S9L-ne-d-01.chk
 Charge =  1 Multiplicity = 2

 SCF Done:  E(UB+HF-LYP) =  -2894.81570337     A.U. after   29 cycles
 SCF Done:  E(UB+HF-LYP) =  -2894.81878154     A.U. after   27 cycles
 SCF Done:  E(UB+HF-LYP) =  -2894.81988910     A.U. after   25 cycles
 SCF Done:  E(UB+HF-LYP) =  -2894.82011090     A.U. after   25 cycles
 SCF Done:  E(UB+HF-LYP) =  -2894.82014111     A.U. after   28 cycles
 SCF Done:  E(UB+HF-LYP) =  -2894.82016373     A.U. after   20 cycles
 SCF Done:  E(UB+HF-LYP) =  -2894.82014168     A.U. after   19 cycles
 SCF Done:  E(UB+HF-LYP) =  -2894.82016361     A.U. after   19 cycles
 SCF Done:  E(UB+HF-LYP) =  -2894.82014754     A.U. after   19 cycles
 SCF Done:  E(UB+HF-LYP) =  -2894.82016303     A.U. after   19 cycles
 Optimization completed.
    -- Stationary point found.

 1\1\GINC-NODE152\FOpt\UB3LYP\6-311+G(d)\Si10(1+,2)\TAM\17-Jun-2011\0\\
 # b3lyp/6-311+G(d) opt=(readfc,noeigentest,maxcycle=500) freq scfcyc=5
 00 optcyc=500 scf=xqc geom=allcheck guess=read\\si10-c\\1,2\Si,0.30916
 57965,-1.4409969193,-2.0068162027\Si,-0.9427761968,0.6542307657,-1.440
 0083909\Si,-0.946863104,-1.5718000492,0.1559428801\Si,1.5433027198,-1.
 5952478863,0.1598474666\Si,0.3108656141,-1.0185717322,2.2511157908\Si,
 -2.7422528469,0.004980718,0.0003950509\Si,1.5471176778,0.6544599887,-1
 .4585493695\Si,0.3154236053,2.4588967053,-0.2438688871\Si,-0.941826006

 Normal termination of Gaussian 03 at Fri Jun 17 19:28:39 2011.

 --------------------------------------------------------------------
 #N Geom=AllCheck Guess=Read SCRF=Check GenChk UB3LYP/6-311+G(d) Freq
 --------------------------------------------------------------------

 si10-c
 ------
 Redundant internal coordinates taken from checkpoint file:
 S9L-ne-d-01.chk
 Charge =  1 Multiplicity = 2

                         Standard orientation:
 ---------------------------------------------------------------------
 Center     Atomic     Atomic              Coordinates (Angstroms)
 Number     Number      Type              X           Y           Z
 ---------------------------------------------------------------------
    1         14             0       -0.319641   -0.808739    2.333053
    2         14             0        0.946857    1.030572    1.196600
    3         14             0        0.936061   -1.557389    0.299588
    4         14             0       -1.554206   -1.564737    0.296970
    5         14             0       -0.317244   -1.614650   -1.869200
    6         14             0        2.742222   -0.013223    0.004308
    7         14             0       -1.542981    1.052304    1.208769
    8         14             0       -0.298553    2.428724   -0.466157
    9         14             0        0.948517    0.513369   -1.491907
   10         14             0       -1.541033    0.533768   -1.512024
 ---------------------------------------------------------------------

 SCF Done:  E(UB+HF-LYP) =  -2894.82016303     A.U. after    1 cycles

 The electronic state is 2-A.
 Alpha  occ. eigenvalues --  -66.29079 -66.28897 -66.28897 -66.28893 -66.28180
 Alpha  occ. eigenvalues --  -66.28180 -66.28178 -66.27440 -66.27435 -66.27432
 Alpha  occ. eigenvalues --   -5.45846  -5.45711  -5.45709  -5.45705  -5.45248
 Alpha  occ. eigenvalues --   -5.45244  -5.45243  -5.44251  -5.44247  -5.44244
 Alpha  occ. eigenvalues --   -3.81683  -3.81676  -3.81672  -3.81645  -3.81569
 Alpha  occ. eigenvalues --   -3.81569  -3.81448  -3.81446  -3.81442  -3.81298
 Alpha  occ. eigenvalues --   -3.81297  -3.81292  -3.81223  -3.81213  -3.81212
 Alpha  occ. eigenvalues --   -3.80951  -3.80951  -3.80947  -3.80869  -3.80868
 Alpha  occ. eigenvalues --   -3.80867  -3.80042  -3.80039  -3.80036  -3.80013
 Alpha  occ. eigenvalues --   -3.80009  -3.80006  -3.79927  -3.79923  -3.79920
 Alpha  occ. eigenvalues --   -0.83662  -0.73220  -0.73149  -0.73148  -0.59242
 Alpha  occ. eigenvalues --   -0.58959  -0.58954  -0.56801  -0.56795  -0.50871
 Alpha  occ. eigenvalues --   -0.42435  -0.42211  -0.42205  -0.41797  -0.41475
 Alpha  occ. eigenvalues --   -0.40269  -0.40265  -0.38828  -0.38820  -0.38358
 Alpha virt. eigenvalues --   -0.26920  -0.25674  -0.25667  -0.20854  -0.20842
 Alpha virt. eigenvalues --   -0.20583  -0.18995  -0.18501  -0.18494  -0.17925
 Alpha virt. eigenvalues --   -0.17177  -0.17164  -0.14341  -0.14338  -0.12559

  Beta  occ. eigenvalues --  -66.29064 -66.28813 -66.28812 -66.28809 -66.28148
  Beta  occ. eigenvalues --  -66.28147 -66.28146 -66.27434 -66.27429 -66.27426
  Beta  occ. eigenvalues --   -5.45829  -5.45624  -5.45622  -5.45619  -5.45212
  Beta  occ. eigenvalues --   -5.45208  -5.45207  -5.44246  -5.44241  -5.44238
  Beta  occ. eigenvalues --   -3.81573  -3.81573  -3.81568  -3.81437  -3.81435
  Beta  occ. eigenvalues --   -3.81432  -3.81363  -3.81357  -3.81355  -3.81251
  Beta  occ. eigenvalues --   -3.81249  -3.81245  -3.81124  -3.81114  -3.81113
  Beta  occ. eigenvalues --   -3.80930  -3.80929  -3.80925  -3.80851  -3.80850
  Beta  occ. eigenvalues --   -3.80849  -3.80017  -3.80013  -3.80010  -3.80002
  Beta  occ. eigenvalues --   -3.79998  -3.79995  -3.79938  -3.79933  -3.79930
  Beta  occ. eigenvalues --   -0.83262  -0.72878  -0.72874  -0.72545  -0.58656
  Beta  occ. eigenvalues --   -0.58652  -0.58470  -0.56177  -0.56165  -0.50416
  Beta  occ. eigenvalues --   -0.42042  -0.42036  -0.41750  -0.41613  -0.40972
  Beta  occ. eigenvalues --   -0.39817  -0.39812  -0.38555  -0.38543
  Beta virt. eigenvalues --   -0.33430  -0.26544  -0.25287  -0.25277  -0.20153
  Beta virt. eigenvalues --   -0.19979  -0.19965  -0.18472  -0.18415  -0.18406
  Beta virt. eigenvalues --   -0.17722  -0.16603  -0.16587  -0.14152  -0.14148

 Mulliken atomic charges:
              1
     1  Si  -0.541138
     2  Si   0.702360
     3  Si   0.701940
     4  Si   0.410047
     5  Si  -0.539874
     6  Si  -0.714390
     7  Si   0.409568
     8  Si  -0.539584
     9  Si   0.701290
    10  Si   0.409781
 Sum of Mulliken charges=   1.00000

 Dipole moment (field-independent basis, Debye):
    X=     0.4986    Y=    -0.0011    Z=    -0.0001  Tot=     0.4986
 Quadrupole moment (field-independent basis, Debye-Ang):
   XX=  -108.2226   YY=  -113.9682   ZZ=  -113.9875
   XY=    -0.0345   XZ=     0.0132   YZ=     0.0024

  Exact polarizability: 287.990  -0.036 275.083   0.011   0.004 274.976
 Approx polarizability:1077.685  -0.497 961.385   0.185   0.020 960.744

 ******    2 imaginary frequencies (negative Signs) ******

                     1                      2                      3
                     A                      A                      A
 Frequencies --  -104.9190               -99.5673               106.1787
 Red. masses --    27.9769                27.9769                27.9769
 Frc consts  --     0.1815                 0.1634                 0.1858
 IR Inten    --     0.2112                 0.2125                 0.1261

                     4                      5                      6
                     A                      A                      A
 Frequencies --   107.6285               128.0282               135.3975
 Red. masses --    27.9769                27.9769                27.9769
 Frc consts  --     0.1909                 0.2702                 0.3022
 IR Inten    --     0.1258                 0.6055                 0.0254

                     7                      8                      9
                     A                      A                      A
 Frequencies --   153.7699               154.7463               208.0437
 Red. masses --    27.9769                27.9769                27.9769
 Frc consts  --     0.3898                 0.3947                 0.7134
 IR Inten    --     0.0775                 0.0737                 1.2950

                    10                     11                     12
                     A                      A                      A
 Frequencies --   209.1661               228.5544               244.7710
 Red. masses --    27.9769                27.9769                27.9769
 Frc consts  --     0.7212                 0.8611                 0.9876
 IR Inten    --     1.3716                 1.8787                 1.4592

                    13                     14                     15
                     A                      A                      A
 Frequencies --   245.5393               258.2528               258.5330
 Red. masses --    27.9769                27.9769                27.9769
 Frc consts  --     0.9938                 1.0994                 1.1017
 IR Inten    --     1.3906                 0.0063                 0.0050

                    16                     17                     18
                     A                      A                      A
 Frequencies --   268.1027               290.5690               307.5195
 Red. masses --    27.9769                27.9769                27.9769
 Frc consts  --     1.1848                 1.3917                 1.5588
 IR Inten    --     1.6871                 0.0491                 0.0015

                    19                     20                     21
                     A                      A                      A
 Frequencies --   342.9657               344.4880               345.0790
 Red. masses --    27.9769                27.9769                27.9769
 Frc consts  --     1.9389                 1.9561                 1.9629
 IR Inten    --     0.0136                 1.0498                 1.0282

                    22                     23                     24
                     A                      A                      A
 Frequencies --   387.4396               387.8861               431.4595
 Red. masses --    27.9769                27.9769                27.9769
 Frc consts  --     2.4743                 2.4800                 3.0685
 IR Inten    --    14.9936                14.9431                18.8522

 - Thermochemistry -
 -------------------
 Temperature   298.150 Kelvin.  Pressure   1.00000 Atm.
 Atom  1 has atomic number 14 and mass  27.97693

 Molecular mass:   279.76928 amu.
 Principal axes and moments of inertia in atomic units:
                           1         2         3
     EIGENVALUES --  3345.805793436.074163437.52140
           X            1.00000   0.00000   0.00000
           Y            0.00000   1.00000   0.00000
           Z            0.00000   0.00000   1.00000
 This molecule is an asymmetric top.
 Rotational symmetry number  1.
 Warning -- assumption of classical behavior for rotation
           may cause significant error
 Rotational temperatures (Kelvin)      0.02589     0.02521     0.02520
 Rotational constants (GHZ):           0.53940     0.52523     0.52501
    2 imaginary frequencies ignored.
 Zero-point vibrational energy      33161.2 (Joules/Mol)
                                    7.92572 (Kcal/Mol)
 Warning -- explicit consideration of  22 degrees of freedom as
           vibrations may cause significant error
 Vibrational temperatures:    152.77   154.85   184.20   194.81   221.24
          (Kelvin)            222.65   299.33   300.94   328.84   352.17
                              353.28   371.57   371.97   385.74   418.06
                              442.45   493.45   495.64   496.49   557.44
                              558.08   620.77

 Zero-point correction=                           0.012630 (Hartree/Particle)
 Thermal correction to Energy=                    0.026409
 Thermal correction to Enthalpy=                  0.027353
 Thermal correction to Gibbs Free Energy=        -0.028581
 Sum of electronic and zero-point Energies=          -2894.807533
 Sum of electronic and thermal Energies=             -2894.793754
 Sum of electronic and thermal Enthalpies=           -2894.792810
 Sum of electronic and thermal Free Energies=        -2894.848744

                     E (Thermal)             CV                S
                      KCal/Mol        Cal/Mol-Kelvin    Cal/Mol-Kelvin
 Total                   16.572             44.218            117.722
 Electronic               0.000              0.000              1.377
 Translational            0.889              2.981             42.785
 Rotational               0.889              2.981             32.047
 Vibrational             14.794             38.256             41.513
 Vibration  1             0.605              1.944              3.338
 Vibration  2             0.606              1.943              3.311
 Vibration  3             0.611              1.925              2.975
 Vibration  4             0.613              1.918              2.868
 Vibration  5             0.619              1.898              2.625
 Vibration  6             0.620              1.897              2.613
 Vibration  7             0.641              1.828              2.061
 Vibration  8             0.642              1.827              2.051
 Vibration  9             0.651              1.797              1.890
 Vibration 10             0.660              1.771              1.768
 Vibration 11             0.660              1.770              1.762
 Vibration 12             0.667              1.749              1.674
 Vibration 13             0.667              1.748              1.672
 Vibration 14             0.673              1.732              1.608
 Vibration 15             0.687              1.691              1.471
 Vibration 16             0.697              1.659              1.376
 Vibration 17             0.722              1.590              1.198
 Vibration 18             0.723              1.586              1.191
 Vibration 19             0.723              1.585              1.189
 Vibration 20             0.756              1.497              1.010
 Vibration 21             0.756              1.496              1.008
 Vibration 22             0.793              1.402              0.854

 1\1\GINC-NODE152\Freq\UB3LYP\6-311+G(d)\Si10(1+,2)\TAM\17-Jun-2011\0\\
 #N Geom=AllCheck Guess=Read SCRF=Check GenChk UB3LYP/6-311+G(d) Freq\\
 si10-c\\1,2\Si,0.3091657965,-1.4409969193,-2.0068162027\Si,-0.94277619
 68,0.6542307657,-1.4400083909\Si,-0.946863104,-1.5718000492,0.15594288
 01\Si,1.5433027198,-1.5952478863,0.1598474666\Si,0.3108656141,-1.01857
 17322,2.2511157908\Si,-2.7422528469,0.004980718,0.0003950509\Si,1.5471
 176778,0.6544599887,-1.4585493695\Si,0.3154236053,2.4588967053,-0.2438
 688871\Si,-0.9418260067,0.9229567643,1.2845754788\Si,1.5478427408,0.93

 Normal termination of Gaussian 03 at Fri Jun 17 20:31:34 2011.
