 Gaussian 03, Revision E.01,

 ----------------------------------------------------------------------
 # b3lyp/LANL2DZ opt=(calcall,noeigentest,maxcycle=500) scfcyc=500 scf=
 xqc
 ----------------------------------------------------------------------

 ------
 si10-n
 ------
 Symbolic Z-matrix:
 Charge =  0 Multiplicity = 1

 SCF Done:  E(RB+HF-LYP) =  -38.5655295273     A.U. after   19 cycles
 SCF Done:  E(RB+HF-LYP) =  -38.5785609788     A.U. after   18 cycles
 SCF Done:  E(RB+HF-LYP) =  -38.5910739161     A.U. after   17 cycles
 SCF Done:  E(RB+HF-LYP) =  -38.5975501249     A.U. after   17 cycles
 SCF Done:  E(RB+HF-LYP) =  -38.6000757653     A.U. after   18 cycles
 SCF Done:  E(RB+HF-LYP) =  -38.6001262308     A.U. after   18 cycles
 SCF Done:  E(RB+HF-LYP) =  -38.6001321948     A.U. after   18 cycles
 SCF Done:  E(RB+HF-LYP) =  -38.6001290515     A.U. after   18 cycles
 SCF Done:  E(RB+HF-LYP) =  -38.6001312336     A.U. after   18 cycles
 Optimization completed.
    -- Stationary point found.
 Normal termination of Gaussian 03 at Mon Apr  4 16:13:09 2011.

 ----------------------------------------------------------------------
 # b3lyp/6-31G(d) opt=(readfc,noeigentest,maxcycle=500) freq scfcyc=500
  optcyc=500 geom=allcheck guess=read scf=xqc
 ----------------------------------------------------------------------

 si10-n
 ------
 Redundant internal coordinates taken from checkpoint file:
 S9L-ne-d-01.chk
 Charge =  0 Multiplicity = 1

 SCF Done:  E(RB+HF-LYP) =  -2894.85843345     A.U. after   26 cycles
 Optimization completed.
 Normal termination of Gaussian 03 at Mon Apr  4 16:35:37 2011.

 ------------------------------------------------------------------
 #N Geom=AllCheck Guess=Read SCRF=Check GenChk RB3LYP/6-31G(d) Freq
 ------------------------------------------------------------------

 si10-n
 ------
 Redundant internal coordinates taken from checkpoint file:
 S9L-ne-d-01.chk
 Charge =  0 Multiplicity = 1

 Normal termination of Gaussian 03 at Mon Apr  4 16:42:31 2011.

 ----------------------------------------------------------------------
 # b3lyp/6-311G(d) opt=(readfc,noeigentest,maxcycle=500) freq scfcyc=50
 0 optcyc=500 geom=allcheck guess=read scf=xqc
 ----------------------------------------------------------------------

 si10-n
 ------
 Redundant internal coordinates taken from checkpoint file:
 S9L-ne-d-01.chk
 Charge =  0 Multiplicity = 1

 SCF Done:  E(RB+HF-LYP) =  -2895.10075682     A.U. after   12 cycles
 SCF Done:  E(RB+HF-LYP) =  -2895.10073886     A.U. after   18 cycles
 SCF Done:  E(RB+HF-LYP) =  -2895.10077763     A.U. after   18 cycles
 SCF Done:  E(RB+HF-LYP) =  -2895.10072598     A.U. after   18 cycles
    -- Stationary point found.
 Normal termination of Gaussian 03 at Mon Apr  4 16:57:10 2011.

 -------------------------------------------------------------------
 #N Geom=AllCheck Guess=Read SCRF=Check GenChk RB3LYP/6-311G(d) Freq
 -------------------------------------------------------------------

 si10-n
 ------
 Redundant internal coordinates taken from checkpoint file:
 S9L-ne-d-01.chk
 Charge =  0 Multiplicity = 1

 SCF Done:  E(RB+HF-LYP) =  -2895.10072598     A.U. after    1 cycles
 Normal termination of Gaussian 03 at Mon Apr  4 17:11:35 2011.
 Gaussian 03:  AM64L-G03RevE.01 11-Sep-2007

 ----------------------------------------------------------------------
 # b3lyp/6-311+G(d) opt=(readfc,noeigentest,maxcycle=500) freq scfcyc=5
 00 optcyc=500 scf=xqc geom=allcheck guess=read
 ----------------------------------------------------------------------

 si10-n
 ------
 Redundant internal coordinates taken from checkpoint file:
 S9L-ne-d-01.chk
 Charge =  0 Multiplicity = 1

 SCF Done:  E(RB+HF-LYP) =  -2895.10814294     A.U. after   14 cycles
 SCF Done:  E(RB+HF-LYP) =  -2895.10817335     A.U. after   21 cycles
 SCF Done:  E(RB+HF-LYP) =  -2895.10816348     A.U. after   22 cycles
 SCF Done:  E(RB+HF-LYP) =  -2895.10816965     A.U. after   22 cycles
 Optimization completed.
    -- Stationary point found.
 Normal termination of Gaussian 03 at Mon Apr  4 17:38:41 2011.

                         Standard orientation:
 ---------------------------------------------------------------------
 Center     Atomic     Atomic              Coordinates (Angstroms)
 Number     Number      Type              X           Y           Z
 ---------------------------------------------------------------------
    1         14             0        0.248578   -1.429718   -1.990027
    2         14             0       -0.946115    0.660551   -1.459401
    3         14             0       -0.951342   -1.592304    0.158163
    4         14             0        1.586627   -1.479955    0.147178
    5         14             0        0.250056   -1.010069    2.232147
    6         14             0       -2.680812    0.005774    0.000739
    7         14             0        1.591108    0.609082   -1.353324
    8         14             0        0.254528    2.437623   -0.242487
    9         14             0       -0.944823    0.935044    1.301513
   10         14             0        1.592195    0.863971    1.205499
 ---------------------------------------------------------------------

 SCF Done:  E(RB+HF-LYP) =  -2895.10816965     A.U. after    1 cycles

 The electronic state is 1-A.
 Alpha  occ. eigenvalues --  -66.13473 -66.13200 -66.13199 -66.13197 -66.12580
 Alpha  occ. eigenvalues --  -66.12579 -66.12579 -66.12314 -66.12311 -66.12310
 Alpha  occ. eigenvalues --   -5.30446  -5.30278  -5.30274  -5.30272  -5.29522
 Alpha  occ. eigenvalues --   -5.29518  -5.29517  -5.29193  -5.29191  -5.29189
 Alpha  occ. eigenvalues --   -3.66217  -3.66216  -3.66215  -3.66195  -3.66193
 Alpha  occ. eigenvalues --   -3.66157  -3.65962  -3.65960  -3.65956  -3.65947
 Alpha  occ. eigenvalues --   -3.65946  -3.65944  -3.65384  -3.65381  -3.65380
 Alpha  occ. eigenvalues --   -3.65220  -3.65212  -3.65211  -3.65199  -3.65194
 Alpha  occ. eigenvalues --   -3.65193  -3.64966  -3.64963  -3.64962  -3.64962
 Alpha  occ. eigenvalues --   -3.64959  -3.64958  -3.64885  -3.64882  -3.64881
 Alpha  occ. eigenvalues --   -0.68890  -0.58786  -0.57900  -0.57899  -0.45641
 Alpha  occ. eigenvalues --   -0.43538  -0.43535  -0.41761  -0.41760  -0.35940
 Alpha  occ. eigenvalues --   -0.27885  -0.27884  -0.27512  -0.26800  -0.26377
 Alpha  occ. eigenvalues --   -0.25432  -0.25428  -0.24105  -0.24102  -0.23867
 Alpha virt. eigenvalues --   -0.12777  -0.11275  -0.11271  -0.05402  -0.05401
 Alpha virt. eigenvalues --   -0.05192  -0.04702  -0.04028  -0.04021  -0.03819
 Alpha virt. eigenvalues --   -0.03485  -0.03482  -0.00975  -0.00966  -0.00515

 Mulliken atomic charges:
              1
     1  Si  -0.650783
     2  Si   0.684907
     3  Si   0.678970
     4  Si   0.264842
     5  Si  -0.652299
     6  Si  -0.880486
     7  Si   0.261790
     8  Si  -0.654990
     9  Si   0.686919
    10  Si   0.261129
 Sum of Mulliken charges=   0.00000

 Dipole moment (field-independent basis, Debye):
    X=    -0.7474    Y=     0.0021    Z=     0.0002  Tot=     0.7474
 Quadrupole moment (field-independent basis, Debye-Ang):
   XX=  -129.4626   YY=  -135.1583   ZZ=  -135.1705
   XY=    -0.0082   XZ=    -0.0023   YZ=     0.0004

  Exact polarizability: 309.181  -0.020 297.268  -0.007   0.000 297.225
 Approx polarizability:1088.204  -0.2131013.035  -0.058  -0.0341012.620

                     1                      2                      3
                     A                      A                      A
 Frequencies --    86.2714                87.4801               175.8038
 Red. masses --    27.9769                27.9769                27.9769
 Frc consts  --     0.1227                 0.1261                 0.5095
 IR Inten    --     0.0801                 0.0790                 0.0012

                     4                      5                      6
                     A                      A                      A
 Frequencies --   175.9892               201.2657               238.1079
 Red. masses --    27.9769                27.9769                27.9769
 Frc consts  --     0.5105                 0.6677                 0.9345
 IR Inten    --     0.0011                 0.1548                 0.5262

                     7                      8                      9
                     A                      A                      A
 Frequencies --   238.8118               239.0726               253.7572
 Red. masses --    27.9769                27.9769                27.9769
 Frc consts  --     0.9401                 0.9421                 1.0614
 IR Inten    --     0.2119                 0.3139                 0.1674

                    10                     11                     12
                     A                      A                      A
 Frequencies --   263.1103               263.4422               270.8008
 Red. masses --    27.9769                27.9769                27.9769
 Frc consts  --     1.1411                 1.1440                 1.2088
 IR Inten    --     0.1539                 0.1488                 0.0927

                    13                     14                     15
                     A                      A                      A
 Frequencies --   271.4766               283.1507               283.4579
 Red. masses --    27.9769                27.9769                27.9769
 Frc consts  --     1.2148                 1.3216                 1.3244
 IR Inten    --     0.0670                 0.8243                 0.8287

                    16                     17                     18
                     A                      A                      A
 Frequencies --   285.9330               295.7101               325.8705
 Red. masses --    27.9769                27.9769                27.9769
 Frc consts  --     1.3477                 1.4414                 1.7504
 IR Inten    --     0.0090                 0.4926                 2.9736

                    19                     20                     21
                     A                      A                      A
 Frequencies --   347.9396               357.8888               357.8917
 Red. masses --    27.9769                27.9769                27.9769
 Frc consts  --     1.9955                 2.1113                 2.1113
 IR Inten    --     0.9023                 0.1637                 0.1597

                    22                     23                     24
                     A                      A                      A
 Frequencies --   401.0955               401.4163               458.9285
 Red. masses --    27.9769                27.9769                27.9769
 Frc consts  --     2.6518                 2.6561                 3.4717
 IR Inten    --     6.0707                 6.0554                 0.7944

 - Thermochemistry -
 -------------------
 Temperature   298.150 Kelvin.  Pressure   1.00000 Atm.
 Atom  1 has atomic number 14 and mass  27.97693

 Molecular mass:   279.76928 amu.
 Principal axes and moments of inertia in atomic units:
                           1         2         3
     EIGENVALUES --  3228.688353377.819503378.16606
           X            1.00000   0.00000   0.00000
           Y            0.00000   1.00000   0.00000
           Z            0.00000   0.00000   1.00000
 This molecule is an asymmetric top.
 Rotational symmetry number  1.
 Warning -- assumption of classical behavior for rotation
           may cause significant error
 Rotational temperatures (Kelvin)      0.02683     0.02564     0.02564
 Rotational constants (GHZ):           0.55897     0.53429     0.53424
 Zero-point vibrational energy      39265.5 (Joules/Mol)
                                    9.38467 (Kcal/Mol)
 Warning -- explicit consideration of  24 degrees of freedom as
           vibrations may cause significant error
 Vibrational temperatures:    124.13   125.86   252.94   253.21   289.58
          (Kelvin)            342.58   343.60   343.97   365.10   378.56
                              379.03   389.62   390.59   407.39   407.83
                              411.39   425.46   468.85   500.61   514.92
                              514.93   577.09   577.55   660.29

 Zero-point correction=                           0.014955 (Hartree/Particle)
 Thermal correction to Energy=                    0.028983
 Thermal correction to Enthalpy=                  0.029927
 Thermal correction to Gibbs Free Energy=        -0.025215
 Sum of electronic and zero-point Energies=          -2895.093214
 Sum of electronic and thermal Energies=             -2895.079187
 Sum of electronic and thermal Enthalpies=           -2895.078243
 Sum of electronic and thermal Free Energies=        -2895.133384

                     E (Thermal)             CV                S
                      KCal/Mol        Cal/Mol-Kelvin    Cal/Mol-Kelvin
 Total                   18.187             46.882            116.056
 Electronic               0.000              0.000              0.000
 Translational            0.889              2.981             42.785
 Rotational               0.889              2.981             31.977
 Vibrational             16.410             40.921             41.294
 Vibration  1             0.601              1.959              3.743
 Vibration  2             0.601              1.958              3.716
 Vibration  3             0.628              1.872              2.373
 Vibration  4             0.628              1.872              2.371
 Vibration  5             0.638              1.838              2.121
 Vibration  6             0.656              1.782              1.817
 Vibration  7             0.657              1.781              1.812
 Vibration  8             0.657              1.781              1.810
 Vibration  9             0.665              1.756              1.704
 Vibration 10             0.670              1.740              1.641
 Vibration 11             0.670              1.740              1.639
 Vibration 12             0.674              1.727              1.591
 Vibration 13             0.675              1.726              1.587
 Vibration 14             0.682              1.705              1.515
 Vibration 15             0.682              1.704              1.513
 Vibration 16             0.684              1.700              1.498
 Vibration 17             0.690              1.682              1.441
 Vibration 18             0.710              1.624              1.280
 Vibration 19             0.726              1.579              1.176
 Vibration 20             0.733              1.559              1.131
 Vibration 21             0.733              1.559              1.131
 Vibration 22             0.767              1.468              0.959
 Vibration 23             0.767              1.467              0.957
 Vibration 24             0.817              1.341              0.769

 Normal termination of Gaussian 03 at Mon Apr  4 18:03:37 2011.
