 Gaussian 03, Revision E.01,

 ----------------------------------------------------------------------
 # b3lyp/LANL2DZ opt=(calcall,noeigentest,maxcycle=500) scfcyc=500 scf=
 xqc
 ----------------------------------------------------------------------

 ------------------
 si10-an-doublet-01
 ------------------
 Symbolic Z-matrix:
 Charge = -1 Multiplicity = 2

 SCF Done:  E(UB+HF-LYP) =  -38.6659004520     A.U. after   17 cycles
 SCF Done:  E(UB+HF-LYP) =  -38.6795842629     A.U. after   16 cycles
 SCF Done:  E(UB+HF-LYP) =  -38.6929588270     A.U. after   17 cycles
 SCF Done:  E(UB+HF-LYP) =  -38.7002176026     A.U. after   17 cycles
 SCF Done:  E(UB+HF-LYP) =  -38.7044603783     A.U. after   17 cycles
 SCF Done:  E(UB+HF-LYP) =  -38.7033543650     A.U. after   17 cycles
 SCF Done:  E(UB+HF-LYP) =  -38.7045193157     A.U. after   17 cycles
 SCF Done:  E(UB+HF-LYP) =  -38.7047847045     A.U. after   16 cycles
 SCF Done:  E(UB+HF-LYP) =  -38.7048679593     A.U. after   15 cycles
 SCF Done:  E(UB+HF-LYP) =  -38.7048654424     A.U. after   11 cycles
 Optimization completed.
    -- Stationary point found.
 ******    2 imaginary frequencies (negative Signs) ******
    2 imaginary frequencies ignored.
 Normal termination of Gaussian 03 at Wed Nov 10 15:12:04 2010.

 ----------------------------------------------------------------------
 # b3lyp/6-31G(d) opt=(readfc,noeigentest) freq scfcyc=500 optcyc=500 g
 eom=allcheck guess=read scf=xqc
 ----------------------------------------------------------------------

 si10-an-doublet-01
 ------------------
 Redundant internal coordinates taken from checkpoint file:
 S10L-an-d-01.chk
 Charge = -1 Multiplicity = 2

 SCF Done:  E(UB+HF-LYP) =  -2894.97630259     A.U. after   12 cycles
 SCF Done:  E(UB+HF-LYP) =  -2894.97630379     A.U. after   12 cycles
 SCF Done:  E(UB+HF-LYP) =  -2894.97630828     A.U. after   10 cycles
 Optimization completed.
 Normal termination of Gaussian 03 at Wed Nov 10 15:26:49 2010.

 ------------------------------------------------------------------
 #N Geom=AllCheck Guess=Read SCRF=Check GenChk UB3LYP/6-31G(d) Freq
 ------------------------------------------------------------------

 si10-an-doublet-01
 ------------------
 Redundant internal coordinates taken from checkpoint file:
 S10L-an-d-01.chk
 Charge = -1 Multiplicity = 2

 SCF Done:  E(UB+HF-LYP) =  -2894.97630828     A.U. after    1 cycles
 Normal termination of Gaussian 03 at Wed Nov 10 15:31:40 2010.

 ----------------------------------------------------------------------
 # b3lyp/6-311G(d) opt=(readfc,noeigentest) freq scfcyc=500 optcyc=500
 geom=allcheck guess=read scf=xqc
 ----------------------------------------------------------------------

 si10-an-doublet-01
 ------------------
 Redundant internal coordinates taken from checkpoint file:
 S10L-an-d-01.chk
 Charge = -1 Multiplicity = 2

 SCF Done:  E(UB+HF-LYP) =  -2895.18683140     A.U. after   13 cycles
 SCF Done:  E(UB+HF-LYP) =  -2895.18685159     A.U. after   11 cycles
 Normal termination of Gaussian 03 at Wed Nov 10 15:34:14 2010.

 -------------------------------------------------------------------
 #N Geom=AllCheck Guess=Read SCRF=Check GenChk UB3LYP/6-311G(d) Freq
 -------------------------------------------------------------------

 si10-an-doublet-01
 ------------------
 Redundant internal coordinates taken from checkpoint file:
 S10L-an-d-01.chk
 Charge = -1 Multiplicity = 2

 SCF Done:  E(UB+HF-LYP) =  -2895.18685159     A.U. after    1 cycles
 Normal termination of Gaussian 03 at Wed Nov 10 15:47:56 2010.
 Gaussian 03:  AM64L-G03RevE.01 11-Sep-2007

 ----------------------------------------------------------------------
 # b3lyp/6-311+G(d) opt=(readfc,noeigentest) freq scfcyc=500 optcyc=500
  scf=xqc geom=allcheck guess=read
 ----------------------------------------------------------------------

 si10-an-doublet-01
 ------------------
 Redundant internal coordinates taken from checkpoint file:
 S10L-an-d-01.chk
 Charge = -1 Multiplicity = 2

 SCF Done:  E(UB+HF-LYP) =  -2895.19476828     A.U. after   15 cycles
 SCF Done:  E(UB+HF-LYP) =  -2895.19477732     A.U. after   13 cycles
    -- Stationary point found.
 Normal termination of Gaussian 03 at Wed Nov 10 15:51:51 2010.

                         Standard orientation:
 ---------------------------------------------------------------------
 Center     Atomic     Atomic              Coordinates (Angstroms)
 Number     Number      Type              X           Y           Z
 ---------------------------------------------------------------------
    1         14             0        0.000000    0.000000    2.844474
    2         14             0        0.000000   -1.533102    0.990715
    3         14             0       -1.327705    0.766551    0.990715
    4         14             0        1.327705    0.766551    0.990715
    5         14             0        0.000000    2.392302   -0.256369
    6         14             0       -2.071795   -1.196151   -0.256369
    7         14             0        2.071795   -1.196151   -0.256369
    8         14             0        0.000000   -1.461841   -1.682504
    9         14             0       -1.265991    0.730920   -1.682504
   10         14             0        1.265991    0.730920   -1.682504
 ---------------------------------------------------------------------

 SCF Done:  E(UB+HF-LYP) =  -2895.19477732     A.U. after    1 cycles

 The electronic state is 2-A1.
 Alpha  occ. eigenvalues --  -65.99546 -65.98571 -65.98570 -65.98570 -65.98347
 Alpha  occ. eigenvalues --  -65.98347 -65.98347 -65.97233 -65.97233 -65.97233
 Alpha  occ. eigenvalues --   -5.16446  -5.15644  -5.15639  -5.15639  -5.15270
 Alpha  occ. eigenvalues --   -5.15265  -5.15265  -5.14220  -5.14220  -5.14219
 Alpha  occ. eigenvalues --   -3.52235  -3.52235  -3.52205  -3.51568  -3.51553
 Alpha  occ. eigenvalues --   -3.51553  -3.51358  -3.51356  -3.51356  -3.51345
 Alpha  occ. eigenvalues --   -3.51345  -3.51339  -3.51172  -3.51169  -3.51169
 Alpha  occ. eigenvalues --   -3.50975  -3.50975  -3.50962  -3.50962  -3.50933
 Alpha  occ. eigenvalues --   -3.50933  -3.50031  -3.50030  -3.50030  -3.49995
 Alpha  occ. eigenvalues --   -3.49995  -3.49995  -3.49891  -3.49891  -3.49891
 Alpha  occ. eigenvalues --   -0.54595  -0.45314  -0.42996  -0.42996  -0.32862
 Alpha  occ. eigenvalues --   -0.28563  -0.28563  -0.27711  -0.27711  -0.22595
 Alpha  occ. eigenvalues --   -0.15560  -0.13913  -0.13913  -0.12124  -0.11930
 Alpha  occ. eigenvalues --   -0.11930  -0.11178  -0.10451  -0.10121  -0.10121
 Alpha  occ. eigenvalues --   -0.04759
 Alpha virt. eigenvalues --    0.02209   0.02209   0.07816   0.07816   0.08171
 Alpha virt. eigenvalues --    0.08654   0.08787   0.08818   0.08818   0.10080
 Alpha virt. eigenvalues --    0.10111   0.10111   0.10550   0.10550   0.11790

  Beta  occ. eigenvalues --  -65.99454 -65.98536 -65.98535 -65.98535 -65.98307
  Beta  occ. eigenvalues --  -65.98307 -65.98307 -65.97212 -65.97212 -65.97212
  Beta  occ. eigenvalues --   -5.16358  -5.15611  -5.15606  -5.15606  -5.15232
  Beta  occ. eigenvalues --   -5.15227  -5.15227  -5.14199  -5.14199  -5.14197
  Beta  occ. eigenvalues --   -3.52207  -3.52207  -3.51852  -3.51499  -3.51484
  Beta  occ. eigenvalues --   -3.51484  -3.51333  -3.51333  -3.51326  -3.51276
  Beta  occ. eigenvalues --   -3.51275  -3.51275  -3.51081  -3.51073  -3.51073
  Beta  occ. eigenvalues --   -3.50958  -3.50958  -3.50946  -3.50887  -3.50863
  Beta  occ. eigenvalues --   -3.50863  -3.49983  -3.49983  -3.49983  -3.49954
  Beta  occ. eigenvalues --   -3.49953  -3.49953  -3.49884  -3.49884  -3.49884
  Beta  occ. eigenvalues --   -0.54170  -0.44825  -0.42731  -0.42731  -0.32210
  Beta  occ. eigenvalues --   -0.28244  -0.28244  -0.27436  -0.27436  -0.21981
  Beta  occ. eigenvalues --   -0.14048  -0.13546  -0.13546  -0.11721  -0.11470
  Beta  occ. eigenvalues --   -0.11470  -0.11137  -0.10155  -0.09857  -0.09857
  Beta virt. eigenvalues --   -0.00206   0.02673   0.02673   0.08057   0.08057
  Beta virt. eigenvalues --    0.08378   0.08853   0.08900   0.08955   0.08955
  Beta virt. eigenvalues --    0.10184   0.10216   0.10216   0.10603   0.10603

 Mulliken atomic charges:
              1
     1  Si  -0.830157
     2  Si   0.517168
     3  Si   0.517168
     4  Si   0.517168
     5  Si  -0.779288
     6  Si  -0.779288
     7  Si  -0.779288
     8  Si   0.205506
     9  Si   0.205506
    10  Si   0.205506
 Sum of Mulliken charges=  -1.00000

 Dipole moment (field-independent basis, Debye):
    X=     0.0000    Y=     0.0000    Z=     0.8732  Tot=     0.8732
 Quadrupole moment (field-independent basis, Debye-Ang):
   XX=  -157.3615   YY=  -157.3615   ZZ=  -157.8834
   XY=     0.0000   XZ=     0.0000   YZ=     0.0000

  Exact polarizability: 331.078   0.000 331.104   0.000  -0.004 378.278
 Approx polarizability:1028.352   0.0001028.352   0.000   0.0001163.017

                     1                      2                      3
                     E                      E                      E
 Frequencies --    88.0558                88.0639               145.6506
 Red. masses --    27.9769                27.9769                27.9769
 Frc consts  --     0.1278                 0.1278                 0.3497
 IR Inten    --     0.0620                 0.0616                 0.2464

                     4                      5                      6
                     E                      E                      E
 Frequencies --   145.6563               212.7044               212.7045
 Red. masses --    27.9769                27.9769                27.9769
 Frc consts  --     0.3497                 0.7458                 0.7458
 IR Inten    --     0.2468                 1.0643                 1.0641

                     7                      8                      9
                    A1                     A2                     ?A
 Frequencies --   214.8914               240.2588               255.6495
 Red. masses --    27.9769                27.9769                27.9769
 Frc consts  --     0.7612                 0.9515                 1.0773
 IR Inten    --     0.0201                 0.0000                 0.3082

                    10                     11                     12
                    ?A                     ?A                     A1
 Frequencies --   255.6525               256.9528               272.9630
 Red. masses --    27.9769                27.9769                27.9769
 Frc consts  --     1.0773                 1.0883                 1.2282
 IR Inten    --     0.3084                 0.0622                 0.0000

                    13                     14                     15
                    ?A                     ?A                     A2
 Frequencies --   276.8837               276.8839               297.6718
 Red. masses --    27.9769                27.9769                27.9769
 Frc consts  --     1.2637                 1.2637                 1.4606
 IR Inten    --     0.8750                 0.8737                 0.0000

                    16                     17                     18
                     E                      E                     ?B
 Frequencies --   298.2939               298.2939               325.4197
 Red. masses --    27.9769                27.9769                27.9769
 Frc consts  --     1.4667                 1.4667                 1.7456
 IR Inten    --     0.0712                 0.0711                 0.6249

                    19                     20                     21
                    ?B                     ?B                     A1
 Frequencies --   325.4202               330.6239               351.7536
 Red. masses --    27.9769                27.9769                27.9769
 Frc consts  --     1.7456                 1.8019                 2.0395
 IR Inten    --     0.6246                 0.2355                 0.8552

                    22                     23                     24
                     E                      E                     A1
 Frequencies --   404.5876               404.5882               441.1757
 Red. masses --    27.9769                27.9769                27.9769
 Frc consts  --     2.6982                 2.6982                 3.2083
 IR Inten    --     0.5181                 0.5183                 0.5670

 - Thermochemistry -
 -------------------
 Temperature   298.150 Kelvin.  Pressure   1.00000 Atm.
 Atom  1 has atomic number 14 and mass  27.97693

 Molecular mass:   279.76928 amu.
 Principal axes and moments of inertia in atomic units:
                           1         2         3
     EIGENVALUES --  3060.311293500.851753500.85175
           X            0.00000   0.80000   0.60000
           Y            0.00000  -0.60000   0.80000
           Z            1.00000   0.00000   0.00000
 This molecule is a prolate symmetric top.
 Rotational symmetry number  3.
 Warning -- assumption of classical behavior for rotation
           may cause significant error
 Rotational temperatures (Kelvin)      0.02830     0.02474     0.02474
 Rotational constants (GHZ):           0.58972     0.51551     0.51551
 Zero-point vibrational energy      38404.9 (Joules/Mol)
                                    9.17899 (Kcal/Mol)
 Warning -- explicit consideration of  24 degrees of freedom as
           vibrations may cause significant error
 Vibrational temperatures:    126.69   126.70   209.56   209.57   306.03
          (Kelvin)            306.03   309.18   345.68   367.82   367.83
                              369.70   392.73   398.37   398.37   428.28
                              429.18   429.18   468.21   468.21   475.69
                              506.09   582.11   582.11   634.75

 Zero-point correction=                           0.014628 (Hartree/Particle)
 Thermal correction to Energy=                    0.028857
 Thermal correction to Enthalpy=                  0.029801
 Thermal correction to Gibbs Free Energy=        -0.025507
 Sum of electronic and zero-point Energies=          -2895.180150
 Sum of electronic and thermal Energies=             -2895.165921
 Sum of electronic and thermal Enthalpies=           -2895.164976
 Sum of electronic and thermal Free Energies=        -2895.220285

                     E (Thermal)             CV                S
                      KCal/Mol        Cal/Mol-Kelvin    Cal/Mol-Kelvin
 Total                   18.108             47.113            116.406
 Electronic               0.000              0.000              1.377
 Translational            0.889              2.981             42.785
 Rotational               0.889              2.981             29.812
 Vibrational             16.330             41.151             42.432
 Vibration  1             0.601              1.958              3.703
 Vibration  2             0.601              1.958              3.703
 Vibration  3             0.617              1.907              2.728
 Vibration  4             0.617              1.907              2.728
 Vibration  5             0.644              1.822              2.020
 Vibration  6             0.644              1.822              2.020
 Vibration  7             0.645              1.818              2.002
 Vibration  8             0.657              1.779              1.801
 Vibration  9             0.666              1.753              1.691
 Vibration 10             0.666              1.753              1.691
 Vibration 11             0.667              1.751              1.682
 Vibration 12             0.676              1.723              1.577
 Vibration 13             0.678              1.716              1.553
 Vibration 14             0.678              1.716              1.553
 Vibration 15             0.691              1.678              1.430
 Vibration 16             0.691              1.677              1.426
 Vibration 17             0.691              1.677              1.426
 Vibration 18             0.710              1.625              1.283
 Vibration 19             0.710              1.625              1.283
 Vibration 20             0.713              1.614              1.257
 Vibration 21             0.728              1.572              1.158
 Vibration 22             0.770              1.460              0.946
 Vibration 23             0.770              1.460              0.946
 Vibration 24             0.801              1.380              0.823

 Optimization completed.
    -- Stationary point found.
 Normal termination of Gaussian 03 at Wed Nov 10 16:16:16 2010.
