 Gaussian 16, Revision C.01,
 Gaussian 16:  ES64L-G16RevC.01  3-Jul-2019

 --------------------------------------------------
 #p b3lyp opt=(noeigentest) freq 6-311+g(d) scf=xqc
 --------------------------------------------------

 --------------------
 Si12-neutral-singlet
 --------------------
 Symbolic Z-matrix:
 Charge =  0 Multiplicity = 1

 SCF Done:  E(RB3LYP) =  -3474.11616677     A.U. after   16 cycles
 SCF Done:  E(RB3LYP) =  -3474.11633564     A.U. after   12 cycles
 SCF Done:  E(RB3LYP) =  -3474.11643557     A.U. after   13 cycles
 SCF Done:  E(RB3LYP) =  -3474.11645891     A.U. after   13 cycles
 SCF Done:  E(RB3LYP) =  -3474.11647770     A.U. after   13 cycles
 SCF Done:  E(RB3LYP) =  -3474.11648081     A.U. after   12 cycles
 SCF Done:  E(RB3LYP) =  -3474.11648425     A.U. after   12 cycles
 Optimization completed.
    -- Stationary point found.

 1\1\GINC-EXP-5-32\FOpt\RB3LYP\6-311+G(d)\Si12\GRIDCHEM\06-May-2025\0\\
 #p b3lyp opt=(noeigentest) freq 6-311+g(d) scf=xqc\\Si12-neutral-singl
 et\\0,1\Si,-0.205915294,0.0040243786,3.6903647538\Si,-0.9745797413,1.4
 761538609,1.8174197708\Si,1.0257842276,-0.0199872868,1.7550921715\Si,-
 1.0324872795,-1.4361151368,1.8171559312\Si,0.6565215781,-1.9206573104,
 0.\Si,0.732351588,1.8935155161,0.\Si,-1.6209574138,0.0326221212,0.\Si,
 -0.9745797413,1.4761538609,-1.8174197708\Si,1.0257842276,-0.0199872868
 ,-1.7550921715\Si,-1.0324872795,-1.4361151368,-1.8171559312\Si,-0.2059

 Normal termination of Gaussian 16 at Tue May  6 04:34:12 2025.

 ----------------------------------------------------------------------
 #P Geom=AllCheck Guess=TCheck SCRF=Check GenChk RB3LYP/6-311+G(d) Freq
 ----------------------------------------------------------------------

 Structure from the checkpoint file:  "/scratch/gridchem/job_39135093/Gau-120688.chk"
 --------------------
 Si12-neutral-singlet
 --------------------
 Charge =  0 Multiplicity = 1

                         Standard orientation:
 ---------------------------------------------------------------------
 Center     Atomic      Atomic             Coordinates (Angstroms)
 Number     Number       Type             X           Y           Z
 ---------------------------------------------------------------------
      1         14           0       -0.205955   -0.000070    3.690365
      2         14           0       -1.003733    1.456487    1.817420
      3         14           0        1.025979    0.000409    1.755092
      4         14           0       -1.003733   -1.456357    1.817156
      5         14           0        0.694575   -1.907226    0.000000
      6         14           0        0.694564    1.907700    0.000000
      7         14           0       -1.621286    0.000391   -0.000000
      8         14           0       -1.003733    1.456487   -1.817420
      9         14           0        1.025979    0.000409   -1.755092
     10         14           0       -1.003733   -1.456357   -1.817156
     11         14           0       -0.205955   -0.000070   -3.690365
     12         14           0        2.607031   -0.001803    0.000000
 ---------------------------------------------------------------------

 SCF Done:  E(RB3LYP) =  -3474.11648425     A.U. after    1 cycles

 The electronic state is 1-A'.
 Alpha  occ. eigenvalues --  -66.14038 -66.13111 -66.13111 -66.13107 -66.12999
 Alpha  occ. eigenvalues --  -66.12994 -66.12430 -66.12430 -66.12428 -66.12428
 Alpha  occ. eigenvalues --  -66.11726 -66.11726  -5.31046  -5.30363  -5.30362
 Alpha  occ. eigenvalues --   -5.29973  -5.29809  -5.29805  -5.29405  -5.29404
 Alpha  occ. eigenvalues --   -5.29402  -5.29401  -5.28604  -5.28604  -3.67072
 Alpha  occ. eigenvalues --   -3.66777  -3.66617  -3.66230  -3.66230  -3.66198
 Alpha  occ. eigenvalues --   -3.66198  -3.65968  -3.65967  -3.65728  -3.65715
 Alpha  occ. eigenvalues --   -3.65695  -3.65608  -3.65605  -3.65547  -3.65543
 Alpha  occ. eigenvalues --   -3.65539  -3.65535  -3.65287  -3.65286  -3.65283
 Alpha  occ. eigenvalues --   -3.65282  -3.65171  -3.65171  -3.65169  -3.65169
 Alpha  occ. eigenvalues --   -3.65006  -3.65006  -3.65005  -3.65004  -3.64375
 Alpha  occ. eigenvalues --   -3.64375  -3.64342  -3.64342  -3.64309  -3.64309
 Alpha  occ. eigenvalues --   -0.69361  -0.63592  -0.58195  -0.56123  -0.53627
 Alpha  occ. eigenvalues --   -0.47002  -0.45521  -0.44081  -0.43429  -0.40814
 Alpha  occ. eigenvalues --   -0.37436  -0.32512  -0.31791  -0.30144  -0.29794
 Alpha  occ. eigenvalues --   -0.28441  -0.27972  -0.25770  -0.24635  -0.23771
 Alpha  occ. eigenvalues --   -0.23443  -0.23339  -0.22653  -0.22561
 Alpha virt. eigenvalues --   -0.10894  -0.10294  -0.09265  -0.08648  -0.08102
 Alpha virt. eigenvalues --   -0.06416  -0.06161  -0.05735  -0.05370  -0.04842
 Alpha virt. eigenvalues --   -0.04299  -0.04131  -0.02498  -0.01913  -0.00420

 Mulliken charges:
               1
     1  Si   0.158988
     2  Si  -0.320330
     3  Si   0.246928
     4  Si  -0.320506
     5  Si  -0.160346
     6  Si  -0.161408
     7  Si   0.828416
     8  Si  -0.320330
     9  Si   0.246928
    10  Si  -0.320506
    11  Si   0.158988
    12  Si  -0.036821
 Sum of Mulliken charges =  -0.00000

 Dipole moment (field-independent basis, Debye):
    X=             -0.2175    Y=             -0.0005    Z=              0.0000  Tot=              0.2175
 Quadrupole moment (field-independent basis, Debye-Ang):
   XX=           -156.9008   YY=           -160.1473   ZZ=           -162.6147
   XY=             -0.0111   XZ=              0.0000   YZ=             -0.0000

  Exact polarizability:     315.783      -0.011     316.298      -0.000       0.000     486.319
 Approx polarizability:    1081.154      -0.097    1105.107      -0.000       0.000    1524.836

 ******    1 imaginary frequencies (negative Signs) ******

                      1                      2                      3
                     A'                     A'                     A'
 Frequencies --    -36.9836               121.2778               133.5322
 Red. masses --     27.9769                27.9769                27.9769
 Frc consts  --      0.0225                 0.2424                 0.2939
 IR Inten    --      0.3591                 0.0109                 0.2022

                      4                      5                      6
                     A"                     A"                     A"
 Frequencies --    146.5556               165.1683               166.3400
 Red. masses --     27.9769                27.9769                27.9769
 Frc consts  --      0.3540                 0.4497                 0.4561
 IR Inten    --      0.4882                 0.0000                 0.0197

                      7                      8                      9
                     A'                     A"                     A'
 Frequencies --    169.4542               185.9105               199.9165
 Red. masses --     27.9769                27.9769                27.9769
 Frc consts  --      0.4733                 0.5697                 0.6588
 IR Inten    --      0.0412                 0.0000                 0.8026

                     10                     11                     12
                     A'                     A"                     A'
 Frequencies --    210.8801               231.7967               233.0842
 Red. masses --     27.9769                27.9769                27.9769
 Frc consts  --      0.7330                 0.8857                 0.8955
 IR Inten    --      0.0681                 0.8505                 0.7287

                     13                     14                     15
                     A'                     A"                     A'
 Frequencies --    253.0385               255.2637               259.7618
 Red. masses --     27.9769                27.9769                27.9769
 Frc consts  --      1.0554                 1.0741                 1.1122
 IR Inten    --      0.2956                 0.0000                 0.3556

                     16                     17                     18
                     A"                     A'                     A"
 Frequencies --    261.9925               266.3368               293.6622
 Red. masses --     27.9769                27.9769                27.9769
 Frc consts  --      1.1314                 1.1693                 1.4215
 IR Inten    --      0.9981                 0.6539                 0.0000

                     19                     20                     21
                     A'                     A'                     A'
 Frequencies --    294.1268               308.3923               321.0393
 Red. masses --     27.9769                27.9769                27.9769
 Frc consts  --      1.4260                 1.5677                 1.6989
 IR Inten    --      0.9466                 0.0091                 0.0924

                     22                     23                     24
                     A"                     A"                     A"
 Frequencies --    321.7704               333.1166               336.4634
 Red. masses --     27.9769                27.9769                27.9769
 Frc consts  --      1.7066                 1.8291                 1.8661
 IR Inten    --      1.4490                 0.0001                 5.4230

                     25                     26                     27
                     A'                     A'                     A'
 Frequencies --    338.1530               371.0673               375.8861
 Red. masses --     27.9769                27.9769                27.9769
 Frc consts  --      1.8849                 2.2696                 2.3290
 IR Inten    --      1.2032                 1.6519                 1.1133

                     28                     29                     30
                     A"                     A"                     A'
 Frequencies --    417.9285               515.2440               520.3567
 Red. masses --     27.9769                27.9769                27.9769
 Frc consts  --      2.8791                 4.3760                 4.4633
 IR Inten    --      4.8530                 7.7112                 6.7802

 - Thermochemistry -
 -------------------
 Temperature   298.150 Kelvin.  Pressure   1.00000 Atm.
 Atom     1 has atomic number 14 and mass  27.97693

 Molecular mass:   335.72314 amu.
 Principal axes and moments of inertia in atomic units:
                           1         2         3
     Eigenvalues --  3234.158066231.215996315.99686
           X            0.00000   0.99999   0.00521
           Y            0.00000  -0.00521   0.99999
           Z            1.00000   0.00000  -0.00000
 This molecule is an asymmetric top.
 Rotational symmetry number  1.
 Warning -- assumption of classical behavior for rotation
           may cause significant error
 Rotational temperatures (Kelvin)      0.02678     0.01390     0.01371
 Rotational constants (GHZ):           0.55803     0.28963     0.28574
    1 imaginary frequencies ignored.
 Zero-point vibrational energy      47895.6 (Joules/Mol)
                                   11.44732 (Kcal/Mol)
 Warning -- explicit consideration of  29 degrees of freedom as
           vibrations may cause significant error
 Vibrational temperatures:    174.49   192.12   210.86   237.64   239.33
          (Kelvin)            243.81   267.48   287.64   303.41   333.50
                              335.36   364.07   367.27   373.74   376.95
                              383.20   422.51   423.18   443.71   461.90
                              462.96   479.28   484.10   486.53   533.88
                              540.82   601.31   741.32   748.68

 Zero-point correction=                           0.018242 (Hartree/Particle)
 Thermal correction to Energy=                    0.034586
 Thermal correction to Enthalpy=                  0.035530
 Thermal correction to Gibbs Free Energy=        -0.024319
 Sum of electronic and zero-point Energies=          -3474.098242
 Sum of electronic and thermal Energies=             -3474.081899
 Sum of electronic and thermal Enthalpies=           -3474.080954
 Sum of electronic and thermal Free Energies=        -3474.140804

                     E (Thermal)             CV                S
                      KCal/Mol        Cal/Mol-Kelvin    Cal/Mol-Kelvin
 Total                   21.703             55.219            125.964
 Electronic               0.000              0.000              0.000
 Translational            0.889              2.981             43.328
 Rotational               0.889              2.981             33.209
 Vibrational             19.925             49.258             49.426
 Vibration     1          0.609              1.931              3.080
 Vibration     2          0.613              1.920              2.895
 Vibration     3          0.617              1.906              2.716
 Vibration     4          0.624              1.885              2.490
 Vibration     5          0.624              1.884              2.476
 Vibration     6          0.625              1.880              2.442
 Vibration     7          0.632              1.859              2.268
 Vibration     8          0.638              1.840              2.134
 Vibration     9          0.643              1.824              2.036
 Vibration    10          0.653              1.792              1.865
 Vibration    11          0.654              1.790              1.855
 Vibration    12          0.664              1.758              1.709
 Vibration    13          0.666              1.754              1.694
 Vibration    14          0.668              1.746              1.663
 Vibration    15          0.669              1.742              1.648
 Vibration    16          0.672              1.735              1.620
 Vibration    17          0.688              1.686              1.453
 Vibration    18          0.689              1.685              1.450
 Vibration    19          0.698              1.658              1.371
 Vibration    20          0.707              1.633              1.305
 Vibration    21          0.707              1.632              1.301
 Vibration    22          0.715              1.609              1.245
 Vibration    23          0.717              1.603              1.229
 Vibration    24          0.718              1.599              1.221
 Vibration    25          0.743              1.532              1.075
 Vibration    26          0.747              1.521              1.056
 Vibration    27          0.781              1.431              0.899
 Vibration    28          0.870              1.216              0.621
 Vibration    29          0.875              1.205              0.609

                           ! Non-Optimized Parameters !

 1\1\GINC-EXP-5-32\Freq\RB3LYP\6-311+G(d)\Si12\GRIDCHEM\06-May-2025\0\\
 #P Geom=AllCheck Guess=TCheck SCRF=Check GenChk RB3LYP/6-311+G(d) Freq
 \\Si12-neutral-singlet\\0,1\Si,-0.205915294,0.0040243786,3.6903647538\
 Si,-0.9745797413,1.4761538609,1.8174197708\Si,1.0257842276,-0.01998728
 68,1.7550921715\Si,-1.0324872795,-1.4361151368,1.8171559312\Si,0.65652
 15781,-1.9206573104,0.\Si,0.732351588,1.8935155161,0.\Si,-1.6209574138
 ,0.0326221212,0.\Si,-0.9745797413,1.4761538609,-1.8174197708\Si,1.0257
 842276,-0.0199872868,-1.7550921715\Si,-1.0324872795,-1.4361151368,-1.8

 Normal termination of Gaussian 16 at Tue May  6 05:01:19 2025.
