 Gaussian 09, Revision A.02,

 ----------------------------------------------------------------------
 # b3lyp/LANL2DZ opt=(calcall,noeigentest,maxcycle=500) scfcyc=500 scf=
 xqc
 ----------------------------------------------------------------------

 ------------
 si12-an-d-01
 ------------
 Symbolic Z-matrix:
 Charge = -1 Multiplicity = 2

 SCF Done:  E(UB3LYP) =  -46.3466955151     A.U. after   28 cycles
 SCF Done:  E(UB3LYP) =  -46.3612729001     A.U. after   25 cycles
 SCF Done:  E(UB3LYP) =  -46.3866608210     A.U. after   22 cycles
 SCF Done:  E(UB3LYP) =  -46.3410478444     A.U. after   34 cycles
 SCF Done:  E(UB3LYP) =  -46.3520217671     A.U. after   22 cycles
 SCF Done:  E(UB3LYP) =  -46.3615588750     A.U. after   24 cycles
 SCF Done:  E(UB3LYP) =  -46.3698997516     A.U. after   23 cycles
 SCF Done:  E(UB3LYP) =  -46.3772470053     A.U. after   20 cycles
 SCF Done:  E(UB3LYP) =  -46.3837573148     A.U. after   19 cycles
 SCF Done:  E(UB3LYP) =  -46.3895542900     A.U. after   19 cycles
 Optimization completed.
    -- Stationary point found.
 Normal termination of Gaussian 09 at Tue Mar  6 09:41:14 2012.

 ----------------------------------------------------------------------
 # b3lyp/6-31G(d) opt=(readfc,noeigentest,maxcycle=500) freq scfcyc=500
  optcyc=500 geom=allcheck guess=read scf=xqc
 ----------------------------------------------------------------------

 si12-an-d-01
 ------------
 Redundant internal coordinates taken from checkpoint file:
 S9L-ne-d-01.chk
 Charge = -1 Multiplicity = 2

 SCF Done:  E(UB3LYP) =  -3473.95033549     A.U. after   17 cycles
 SCF Done:  E(UB3LYP) =  -3473.95034801     A.U. after   14 cycles
 SCF Done:  E(UB3LYP) =  -3473.95034830     A.U. after   13 cycles
 Optimization completed.
 Normal termination of Gaussian 09 at Tue Mar  6 09:55:48 2012.

 --------------------------------------------------------------------
 #N Geom=AllCheck Guess=TCheck SCRF=Check GenChk UB3LYP/6-31G(d) Freq
 --------------------------------------------------------------------

 si12-an-d-01
 ------------
 Redundant internal coordinates taken from checkpoint file:
 S9L-ne-d-01.chk
 Charge = -1 Multiplicity = 2

 SCF Done:  E(UB3LYP) =  -3473.95034830     A.U. after    1 cycles
 Normal termination of Gaussian 09 at Tue Mar  6 10:02:38 2012.

 ----------------------------------------------------------------------
 # b3lyp/6-311G(d) opt=(readfc,noeigentest,maxcycle=500) freq scfcyc=50
 0 optcyc=500 geom=allcheck guess=read scf=xqc
 ----------------------------------------------------------------------

 si12-an-d-01
 ------------
 Redundant internal coordinates taken from checkpoint file:
 S9L-ne-d-01.chk
 Charge = -1 Multiplicity = 2

 SCF Done:  E(UB3LYP) =  -3474.20286926     A.U. after   15 cycles
 SCF Done:  E(UB3LYP) =  -3474.20289593     A.U. after   15 cycles
 Normal termination of Gaussian 09 at Tue Mar  6 10:09:38 2012.

 ---------------------------------------------------------------------
 #N Geom=AllCheck Guess=TCheck SCRF=Check GenChk UB3LYP/6-311G(d) Freq
 ---------------------------------------------------------------------

 si12-an-d-01
 ------------
 Redundant internal coordinates taken from checkpoint file:
 S9L-ne-d-01.chk
 Charge = -1 Multiplicity = 2

 SCF Done:  E(UB3LYP) =  -3474.20289593     A.U. after    1 cycles
 Normal termination of Gaussian 09 at Tue Mar  6 10:29:35 2012.
 Gaussian 09:  AM64L-G09RevA.02 11-Jun-2009

 ----------------------------------------------------------------------
 # b3lyp/6-311+G(d) opt=(readfc,noeigentest,maxcycle=500) freq scfcyc=5
 00 optcyc=500 scf=xqc geom=allcheck guess=read
 ----------------------------------------------------------------------

 si12-an-d-01
 ------------
 Redundant internal coordinates taken from checkpoint file:
 S9L-ne-d-01.chk
 Charge = -1 Multiplicity = 2

 SCF Done:  E(UB3LYP) =  -3474.21077398     A.U. after   18 cycles
 SCF Done:  E(UB3LYP) =  -3474.21080227     A.U. after   17 cycles
    -- Stationary point found.
 Normal termination of Gaussian 09 at Tue Mar  6 10:44:27 2012.

                         Standard orientation:
 ---------------------------------------------------------------------
 Center     Atomic      Atomic             Coordinates (Angstroms)
 Number     Number       Type             X           Y           Z
 ---------------------------------------------------------------------
      1         14           0        3.607207   -0.140421    0.024739
      2         14           0        1.656042   -1.322357    1.052288
      3         14           0        1.660263    1.072011    0.476256
      4         14           0        1.760810   -0.560969   -1.530708
      5         14           0        0.000000    1.072472   -1.649112
      6         14           0        0.000000    0.125937    2.219303
      7         14           0        0.000000   -2.044715   -0.674247
      8         14           0       -1.656041   -1.322357    1.052288
      9         14           0       -1.660263    1.072011    0.476256
     10         14           0       -1.760810   -0.560969   -1.530708
     11         14           0       -3.607207   -0.140421    0.024739
     12         14           0        0.000000    2.749778    0.058906
 ---------------------------------------------------------------------

 SCF Done:  E(UB3LYP) =  -3474.21080227     A.U. after    2 cycles

 The electronic state is 2-A.
 Alpha  occ. eigenvalues --  -66.00022 -65.99646 -65.99646 -65.99499 -65.99006
 Alpha  occ. eigenvalues --  -65.98856 -65.98766 -65.98766 -65.98709 -65.98709
 Alpha  occ. eigenvalues --  -65.97813 -65.97813  -5.16949  -5.16824  -5.16822
 Alpha  occ. eigenvalues --   -5.16430  -5.16081  -5.15789  -5.15789  -5.15768
 Alpha  occ. eigenvalues --   -5.15768  -5.15705  -5.14738  -5.14737  -3.52792
 Alpha  occ. eigenvalues --   -3.52750  -3.52750  -3.52707  -3.52641  -3.52636
 Alpha  occ. eigenvalues --   -3.52617  -3.52454  -3.52426  -3.52426  -3.52194
 Alpha  occ. eigenvalues --   -3.52096  -3.51949  -3.51833  -3.51785  -3.51661
 Alpha  occ. eigenvalues --   -3.51660  -3.51626  -3.51626  -3.51607  -3.51607
 Alpha  occ. eigenvalues --   -3.51559  -3.51559  -3.51539  -3.51482  -3.51409
 Alpha  occ. eigenvalues --   -3.51407  -3.51382  -3.51382  -3.51354  -3.50519
 Alpha  occ. eigenvalues --   -3.50519  -3.50470  -3.50470  -3.50451  -3.50451
 Alpha  occ. eigenvalues --   -0.55048  -0.49747  -0.45255  -0.42734  -0.39473
 Alpha  occ. eigenvalues --   -0.32937  -0.32459  -0.31976  -0.29572  -0.27412
 Alpha  occ. eigenvalues --   -0.23960  -0.20471  -0.17980  -0.17293  -0.16343
 Alpha  occ. eigenvalues --   -0.15109  -0.14303  -0.14014  -0.13559  -0.10707
 Alpha  occ. eigenvalues --   -0.10690  -0.09648  -0.08669  -0.08182  -0.06870
 Alpha virt. eigenvalues --    0.01864   0.03352   0.04298   0.04929   0.05602
 Alpha virt. eigenvalues --    0.06465   0.06843   0.06985   0.07645   0.08657
 Alpha virt. eigenvalues --    0.08673   0.08998   0.09787   0.09796   0.11057

  Beta  occ. eigenvalues --  -65.99980 -65.99604 -65.99604 -65.99266 -65.98986
  Beta  occ. eigenvalues --  -65.98849 -65.98755 -65.98755 -65.98687 -65.98687
  Beta  occ. eigenvalues --  -65.97816 -65.97816  -5.16905  -5.16780  -5.16779
  Beta  occ. eigenvalues --   -5.16179  -5.16062  -5.15777  -5.15777  -5.15744
  Beta  occ. eigenvalues --   -5.15744  -5.15700  -5.14740  -5.14739  -3.52771
  Beta  occ. eigenvalues --   -3.52688  -3.52678  -3.52675  -3.52557  -3.52555
  Beta  occ. eigenvalues --   -3.52489  -3.52396  -3.52395  -3.52031  -3.51950
  Beta  occ. eigenvalues --   -3.51929  -3.51827  -3.51771  -3.51720  -3.51633
  Beta  occ. eigenvalues --   -3.51633  -3.51612  -3.51611  -3.51585  -3.51585
  Beta  occ. eigenvalues --   -3.51540  -3.51505  -3.51505  -3.51480  -3.51398
  Beta  occ. eigenvalues --   -3.51396  -3.51369  -3.51369  -3.51324  -3.50523
  Beta  occ. eigenvalues --   -3.50523  -3.50474  -3.50474  -3.50456  -3.50456
  Beta  occ. eigenvalues --   -0.54775  -0.49569  -0.44910  -0.42502  -0.39119
  Beta  occ. eigenvalues --   -0.32725  -0.31865  -0.31694  -0.29480  -0.27113
  Beta  occ. eigenvalues --   -0.23728  -0.19456  -0.17729  -0.16971  -0.16065
  Beta  occ. eigenvalues --   -0.15029  -0.14051  -0.13345  -0.12688  -0.10582
  Beta  occ. eigenvalues --   -0.10463  -0.09366  -0.08624  -0.08053
  Beta virt. eigenvalues --   -0.00842   0.02035   0.03505   0.04461   0.05220
  Beta virt. eigenvalues --    0.05675   0.06613   0.07009   0.07094   0.07888
  Beta virt. eigenvalues --    0.08731   0.08907   0.09127   0.09813   0.09889

 Mulliken atomic charges:
              1
     1  Si   0.333864
     2  Si  -0.147179
     3  Si   0.198330
     4  Si  -0.646119
     5  Si   0.422754
     6  Si  -0.659289
     7  Si   0.588841
     8  Si  -0.147179
     9  Si   0.198330
    10  Si  -0.646119
    11  Si   0.333864
    12  Si  -0.830096
 Sum of Mulliken atomic charges =  -1.00000

 Dipole moment (field-independent basis, Debye):
    X=              0.0000    Y=              0.3840    Z=             -0.5865  Tot=              0.7010
 Quadrupole moment (field-independent basis, Debye-Ang):
   XX=           -204.7616   YY=           -179.0395   ZZ=           -180.3238
   XY=              0.0000   XZ=              0.0000   YZ=             -1.2643

  Exact polarizability: 522.711   0.000 373.302   0.000   3.299 347.826
 Approx polarizability:1531.859   0.0001193.348   0.000   2.5741112.781

                     1                      2                      3
                     A                      A                      A
 Frequencies --    83.9127               128.7424               162.3082
 Red. masses --    27.9769                27.9769                27.9769
 Frc consts  --     0.1161                 0.2732                 0.4342
 IR Inten    --     0.4778                 0.0228                 1.3616

                     4                      5                      6
                     A                      A                      A
 Frequencies --   162.6726               172.8140               176.4953
 Red. masses --    27.9769                27.9769                27.9769
 Frc consts  --     0.4362                 0.4923                 0.5135
 IR Inten    --     0.9086                 0.0009                 0.0005

                     7                      8                      9
                     A                      A                      A
 Frequencies --   179.7363               181.2186               201.7518
 Red. masses --    27.9769                27.9769                27.9769
 Frc consts  --     0.5325                 0.5413                 0.6709
 IR Inten    --     0.1471                 0.0856                 0.1525

                    10                     11                     12
                     A                      A                      A
 Frequencies --   213.8001               215.8270               232.7936
 Red. masses --    27.9769                27.9769                27.9769
 Frc consts  --     0.7535                 0.7678                 0.8933
 IR Inten    --     0.4849                 0.0344                 0.2954

                    13                     14                     15
                     A                      A                      A
 Frequencies --   234.9133               252.9862               253.3148
 Red. masses --    27.9769                27.9769                27.9769
 Frc consts  --     0.9096                 1.0550                 1.0577
 IR Inten    --     0.2256                 0.0150                 0.1099

                    16                     17                     18
                     A                      A                      A
 Frequencies --   265.1383               282.0104               289.2899
 Red. masses --    27.9769                27.9769                27.9769
 Frc consts  --     1.1588                 1.3109                 1.3795
 IR Inten    --     0.6577                 0.0170                 0.0002

                    19                     20                     21
                     A                      A                      A
 Frequencies --   301.4561               305.4519               310.0107
 Red. masses --    27.9769                27.9769                27.9769
 Frc consts  --     1.4980                 1.5379                 1.5842
 IR Inten    --     0.3446                 0.4219                 0.6995

                    22                     23                     24
                     A                      A                      A
 Frequencies --   337.1734               339.9498               357.0045
 Red. masses --    27.9769                27.9769                27.9769
 Frc consts  --     1.8739                 1.9049                 2.1009
 IR Inten    --     0.0055                 0.7651                 1.2025

                    25                     26                     27
                     A                      A                      A
 Frequencies --   360.1083               369.1996               388.5628
 Red. masses --    27.9769                27.9769                27.9769
 Frc consts  --     2.1376                 2.2468                 2.4887
 IR Inten    --     0.4901                 2.0088                 0.2647

                    28                     29                     30
                     A                      A                      A
 Frequencies --   415.4949               483.8560               498.5615
 Red. masses --    27.9769                27.9769                27.9769
 Frc consts  --     2.8457                 3.8591                 4.0972
 IR Inten    --     0.6709                 3.4444                 2.7762

 - Thermochemistry -
 -------------------
 Temperature   298.150 Kelvin.  Pressure   1.00000 Atm.
 Atom     1 has atomic number 14 and mass  27.97693

 Molecular mass:   335.72314 amu.
 Principal axes and moments of inertia in atomic units:
                           1         2         3
     Eigenvalues --  3479.900705862.692766253.74064
           X            1.00000   0.00000   0.00000
           Y            0.00000   1.00000   0.00000
           Z            0.00000   0.00000   1.00000
 This molecule is an asymmetric top.
 Rotational symmetry number  1.
 Warning -- assumption of classical behavior for rotation
           may cause significant error
 Rotational temperatures (Kelvin)      0.02489     0.01477     0.01385
 Rotational constants (GHZ):           0.51862     0.30783     0.28859
 Zero-point vibrational energy      48787.0 (Joules/Mol)
                                   11.66038 (Kcal/Mol)
 Warning -- explicit consideration of  30 degrees of freedom as
           vibrations may cause significant error
 Vibrational temperatures:    120.73   185.23   233.52   234.05   248.64
          (Kelvin)            253.94   258.60   260.73   290.28   307.61
                              310.53   334.94   337.99   363.99   364.46
                              381.47   405.75   416.22   433.73   439.48
                              446.04   485.12   489.11   513.65   518.11
                              531.20   559.05   597.80   696.16   717.32

 Zero-point correction=                           0.018582 (Hartree/Particle)
 Thermal correction to Energy=                    0.035561
 Thermal correction to Enthalpy=                  0.036505
 Thermal correction to Gibbs Free Energy=        -0.025363
 Sum of electronic and zero-point Energies=          -3474.192220
 Sum of electronic and thermal Energies=             -3474.175242
 Sum of electronic and thermal Enthalpies=           -3474.174297
 Sum of electronic and thermal Free Energies=        -3474.236165

                     E (Thermal)             CV                S
                      KCal/Mol        Cal/Mol-Kelvin    Cal/Mol-Kelvin
 Total                   22.315             57.115            130.212
 Electronic               0.000              0.000              1.377
 Translational            0.889              2.981             43.328
 Rotational               0.889              2.981             33.211
 Vibrational             20.537             51.153             52.295
 Vibration     1          0.601              1.960              3.797
 Vibration     2          0.611              1.925              2.965
 Vibration     3          0.622              1.889              2.523
 Vibration     4          0.623              1.888              2.518
 Vibration     5          0.626              1.876              2.405
 Vibration     6          0.628              1.871              2.365
 Vibration     7          0.629              1.867              2.331
 Vibration     8          0.630              1.865              2.316
 Vibration     9          0.639              1.837              2.117
 Vibration    10          0.644              1.820              2.011
 Vibration    11          0.645              1.817              1.994
 Vibration    12          0.654              1.791              1.857
 Vibration    13          0.655              1.787              1.841
 Vibration    14          0.664              1.758              1.710
 Vibration    15          0.664              1.757              1.707
 Vibration    16          0.671              1.737              1.628
 Vibration    17          0.681              1.707              1.521
 Vibration    18          0.686              1.694              1.478
 Vibration    19          0.693              1.671              1.409
 Vibration    20          0.696              1.663              1.387
 Vibration    21          0.699              1.655              1.362
 Vibration    22          0.718              1.601              1.225
 Vibration    23          0.720              1.596              1.212
 Vibration    24          0.732              1.561              1.135
 Vibration    25          0.735              1.554              1.122
 Vibration    26          0.741              1.536              1.083
 Vibration    27          0.757              1.495              1.006
 Vibration    28          0.779              1.437              0.907
 Vibration    29          0.840              1.286              0.700
 Vibration    30          0.854              1.253              0.662

 Optimization completed.
    -- Stationary point found.
 Normal termination of Gaussian 09 at Tue Mar  6 11:24:15 2012.
