 Gaussian 03, Revision E.01,

 ----------------------------------------------------------------------
 # b3lyp/LANL2DZ opt=(calcall,noeigentest,maxcycle=500) scfcyc=500 scf=
 xqc
 ----------------------------------------------------------------------

 ------
 si12-n
 ------
 Symbolic Z-matrix:
 Charge =  0 Multiplicity = 1

 SCF Done:  E(RB+HF-LYP) =  -46.2903853823     A.U. after   18 cycles
 SCF Done:  E(RB+HF-LYP) =  -46.3039588289     A.U. after   17 cycles
 SCF Done:  E(RB+HF-LYP) =  -46.3172678402     A.U. after   18 cycles
 SCF Done:  E(RB+HF-LYP) =  -46.3244485090     A.U. after   19 cycles
 SCF Done:  E(RB+HF-LYP) =  -46.3280797367     A.U. after   20 cycles
 SCF Done:  E(RB+HF-LYP) =  -46.3288681341     A.U. after   20 cycles
 SCF Done:  E(RB+HF-LYP) =  -46.3288898775     A.U. after   13 cycles
 Optimization completed.
    -- Stationary point found.
 Normal termination of Gaussian 03 at Wed Apr  6 18:45:23 2011.

 ----------------------------------------------------------------------
 # b3lyp/6-31G(d) opt=(readfc,noeigentest,maxcycle=500) freq scfcyc=500
  optcyc=500 geom=allcheck guess=read scf=xqc
 ----------------------------------------------------------------------

 si12-n
 ------
 Redundant internal coordinates taken from checkpoint file:
 S9L-ne-d-01.chk
 Charge =  0 Multiplicity = 1

 SCF Done:  E(RB+HF-LYP) =  -3473.82345218     A.U. after   27 cycles
 SCF Done:  E(RB+HF-LYP) =  -3473.83409157     A.U. after   16 cycles
 SCF Done:  E(RB+HF-LYP) =  -3473.84528116     A.U. after   16 cycles
 SCF Done:  E(RB+HF-LYP) =  -3473.85708254     A.U. after   12 cycles
 SCF Done:  E(RB+HF-LYP) =  -3473.85708218     A.U. after   11 cycles
 Optimization completed.
 Normal termination of Gaussian 03 at Wed Apr  6 19:12:09 2011.

 ------------------------------------------------------------------
 #N Geom=AllCheck Guess=Read SCRF=Check GenChk RB3LYP/6-31G(d) Freq
 ------------------------------------------------------------------

 si12-n
 ------
 Redundant internal coordinates taken from checkpoint file:
 S9L-ne-d-01.chk
 Charge =  0 Multiplicity = 1

 SCF Done:  E(RB+HF-LYP) =  -3473.85708218     A.U. after    1 cycles
 Normal termination of Gaussian 03 at Wed Apr  6 19:24:17 2011.

 ----------------------------------------------------------------------
 # b3lyp/6-311G(d) opt=(readfc,noeigentest,maxcycle=500) freq scfcyc=50
 0 optcyc=500 geom=allcheck guess=read scf=xqc
 ----------------------------------------------------------------------

 si12-n
 ------
 Redundant internal coordinates taken from checkpoint file:
 S9L-ne-d-01.chk
 Charge =  0 Multiplicity = 1

 SCF Done:  E(RB+HF-LYP) =  -3474.11036434     A.U. after   13 cycles
 SCF Done:  E(RB+HF-LYP) =  -3474.11047289     A.U. after   14 cycles
 SCF Done:  E(RB+HF-LYP) =  -3474.11048225     A.U. after   11 cycles
    -- Stationary point found.
 Normal termination of Gaussian 03 at Wed Apr  6 19:38:05 2011.

 -------------------------------------------------------------------
 #N Geom=AllCheck Guess=Read SCRF=Check GenChk RB3LYP/6-311G(d) Freq
 -------------------------------------------------------------------

 si12-n
 ------
 Redundant internal coordinates taken from checkpoint file:
 S9L-ne-d-01.chk
 Charge =  0 Multiplicity = 1

 SCF Done:  E(RB+HF-LYP) =  -3474.11048225     A.U. after    1 cycles
 Normal termination of Gaussian 03 at Wed Apr  6 20:04:21 2011.
 Gaussian 03:  AM64L-G03RevE.01 11-Sep-2007

 ----------------------------------------------------------------------
 # b3lyp/6-311+G(d) opt=(readfc,noeigentest,maxcycle=500) freq scfcyc=5
 00 optcyc=500 scf=xqc geom=allcheck guess=read
 ----------------------------------------------------------------------

 si12-n
 ------
 Redundant internal coordinates taken from checkpoint file:
 S9L-ne-d-01.chk
 Charge =  0 Multiplicity = 1

 SCF Done:  E(RB+HF-LYP) =  -3474.11680538     A.U. after   15 cycles
 SCF Done:  E(RB+HF-LYP) =  -3474.11684868     A.U. after   14 cycles
 Optimization completed.
    -- Stationary point found.
 Normal termination of Gaussian 03 at Wed Apr  6 20:22:36 2011.

                         Standard orientation:
 ---------------------------------------------------------------------
 Center     Atomic     Atomic              Coordinates (Angstroms)
 Number     Number      Type              X           Y           Z
 ---------------------------------------------------------------------
    1         14             0        3.671177   -0.158666    0.064848
    2         14             0        1.838438    0.033461    1.743993
    3         14             0        1.725927    0.796029   -0.719757
    4         14             0        1.792436   -1.678091   -0.588810
    5         14             0        0.000000   -0.623893   -2.026512
    6         14             0       -0.000002    1.577186    1.174827
    7         14             0        0.000006   -1.304249    1.005919
    8         14             0       -1.838433    0.033454    1.743994
    9         14             0       -1.725933    0.796026   -0.719766
   10         14             0       -1.792436   -1.678088   -0.588807
   11         14             0       -3.671178   -0.158669    0.064856
   12         14             0       -0.000003    2.365501   -1.154785
 ---------------------------------------------------------------------

 SCF Done:  E(RB+HF-LYP) =  -3474.11684868     A.U. after    2 cycles

 The electronic state is 1-A.
 Alpha  occ. eigenvalues --  -66.14055 -66.13156 -66.13156 -66.13029 -66.12941
 Alpha  occ. eigenvalues --  -66.12517 -66.12455 -66.12455 -66.12443 -66.12443
 Alpha  occ. eigenvalues --  -66.11527 -66.11527  -5.31068  -5.30359  -5.30358
 Alpha  occ. eigenvalues --   -5.29843  -5.29804  -5.29471  -5.29432  -5.29431
 Alpha  occ. eigenvalues --   -5.29428  -5.29428  -5.28408  -5.28408  -3.67099
 Alpha  occ. eigenvalues --   -3.66794  -3.66641  -3.66261  -3.66261  -3.66178
 Alpha  occ. eigenvalues --   -3.66178  -3.65946  -3.65945  -3.65676  -3.65619
 Alpha  occ. eigenvalues --   -3.65584  -3.65533  -3.65509  -3.65499  -3.65332
 Alpha  occ. eigenvalues --   -3.65332  -3.65329  -3.65291  -3.65291  -3.65228
 Alpha  occ. eigenvalues --   -3.65228  -3.65213  -3.65184  -3.65175  -3.65163
 Alpha  occ. eigenvalues --   -3.65038  -3.65037  -3.65016  -3.65016  -3.64190
 Alpha  occ. eigenvalues --   -3.64189  -3.64127  -3.64127  -3.64124  -3.64124
 Alpha  occ. eigenvalues --   -0.69118  -0.63287  -0.58110  -0.56382  -0.53365
 Alpha  occ. eigenvalues --   -0.47034  -0.45376  -0.43931  -0.43766  -0.40541
 Alpha  occ. eigenvalues --   -0.37409  -0.32584  -0.31654  -0.29896  -0.29697
 Alpha  occ. eigenvalues --   -0.28771  -0.27522  -0.26044  -0.25273  -0.23902
 Alpha  occ. eigenvalues --   -0.23865  -0.22979  -0.22192  -0.22057
 Alpha virt. eigenvalues --   -0.11025  -0.10299  -0.09484  -0.09208  -0.07739
 Alpha virt. eigenvalues --   -0.07322  -0.06595  -0.05953  -0.05600  -0.04546
 Alpha virt. eigenvalues --   -0.03787  -0.02829  -0.02415  -0.01885  -0.00359

 Mulliken atomic charges:
              1
     1  Si   0.212660
     2  Si  -0.329563
     3  Si   0.298503
     4  Si  -0.346522
     5  Si  -0.160191
     6  Si  -0.038680
     7  Si   0.836890
     8  Si  -0.329562
     9  Si   0.298499
    10  Si  -0.346525
    11  Si   0.212660
    12  Si  -0.308168
 Sum of Mulliken charges=   0.00000

 Dipole moment (field-independent basis, Debye):
    X=     0.0000    Y=    -0.0401    Z=     0.3064  Tot=     0.3090
 Quadrupole moment (field-independent basis, Debye-Ang):
   XX=  -163.5972   YY=  -156.2891   ZZ=  -159.9288
   XY=     0.0000   XZ=     0.0000   YZ=    -0.7491

  Exact polarizability: 484.010   0.000 318.492   0.000   1.023 316.286
 Approx polarizability:1515.377  -0.0011102.701   0.000  18.5701093.361

                     1                      2                      3
                     A                      A                      A
 Frequencies --    54.8096               118.6370               144.2262
 Red. masses --    27.9769                27.9769                27.9769
 Frc consts  --     0.0495                 0.2320                 0.3429
 IR Inten    --     0.3081                 0.2602                 0.8273

                     4                      5                      6
                     A                      A                      A
 Frequencies --   148.9464               164.0885               169.7434
 Red. masses --    27.9769                27.9769                27.9769
 Frc consts  --     0.3657                 0.4438                 0.4749
 IR Inten    --     0.5764                 0.0881                 0.0091

                     7                      8                      9
                     A                      A                      A
 Frequencies --   173.6368               184.8577               194.9778
 Red. masses --    27.9769                27.9769                27.9769
 Frc consts  --     0.4970                 0.5633                 0.6266
 IR Inten    --     0.1512                 0.0069                 0.2330

                    10                     11                     12
                     A                      A                      A
 Frequencies --   214.0557               222.9933               235.3825
 Red. masses --    27.9769                27.9769                27.9769
 Frc consts  --     0.7553                 0.8197                 0.9133
 IR Inten    --     0.1675                 1.3186                 0.7186

                    13                     14                     15
                     A                      A                      A
 Frequencies --   248.7637               255.4754               259.5058
 Red. masses --    27.9769                27.9769                27.9769
 Frc consts  --     1.0201                 1.0758                 1.1101
 IR Inten    --     0.3283                 0.0430                 0.8589

                    16                     17                     18
                     A                      A                      A
 Frequencies --   263.0368               275.3852               282.8080
 Red. masses --    27.9769                27.9769                27.9769
 Frc consts  --     1.1405                 1.2501                 1.3184
 IR Inten    --     0.6021                 0.0581                 0.0005

                    19                     20                     21
                     A                      A                      A
 Frequencies --   307.3528               310.2016               318.5599
 Red. masses --    27.9769                27.9769                27.9769
 Frc consts  --     1.5571                 1.5861                 1.6728
 IR Inten    --     0.6558                 0.1442                 1.8925

                    22                     23                     24
                     A                      A                      A
 Frequencies --   335.6607               338.7076               341.1901
 Red. masses --    27.9769                27.9769                27.9769
 Frc consts  --     1.8572                 1.8910                 1.9189
 IR Inten    --     1.4989                 0.4143                 4.2458

                    25                     26                     27
                     A                      A                      A
 Frequencies --   347.2560               372.9211               390.5706
 Red. masses --    27.9769                27.9769                27.9769
 Frc consts  --     1.9877                 2.2924                 2.5145
 IR Inten    --     0.9939                 1.3049                 1.8805

                    28                     29                     30
                     A                      A                      A
 Frequencies --   417.5376               505.6756               511.3808
 Red. masses --    27.9769                27.9769                27.9769
 Frc consts  --     2.8737                 4.2150                 4.3106
 IR Inten    --     5.0400                 7.7628                 5.4865

 - Thermochemistry -
 -------------------
 Temperature   298.150 Kelvin.  Pressure   1.00000 Atm.
 Atom  1 has atomic number 14 and mass  27.97693

 Molecular mass:   335.72314 amu.
 Principal axes and moments of inertia in atomic units:
                           1         2         3
     EIGENVALUES --  3274.826826169.424816316.48748
           X            1.00000   0.00000   0.00000
           Y            0.00000   1.00000   0.00000
           Z            0.00000   0.00000   1.00000
 This molecule is an asymmetric top.
 Rotational symmetry number  1.
 Warning -- assumption of classical behavior for rotation
           may cause significant error
 Rotational temperatures (Kelvin)      0.02645     0.01404     0.01371
 Rotational constants (GHZ):           0.55110     0.29253     0.28572
 Zero-point vibrational energy      48498.7 (Joules/Mol)
                                   11.59146 (Kcal/Mol)
 Warning -- explicit consideration of  30 degrees of freedom as
           vibrations may cause significant error
 Vibrational temperatures:     78.86   170.69   207.51   214.30   236.09
          (Kelvin)            244.22   249.82   265.97   280.53   307.98
                              320.84   338.66   357.92   367.57   373.37
                              378.45   396.22   406.90   442.21   446.31
                              458.34   482.94   487.32   490.90   499.62
                              536.55   561.94   600.74   727.55   735.76

 Zero-point correction=                           0.018472 (Hartree/Particle)
 Thermal correction to Energy=                    0.035575
 Thermal correction to Enthalpy=                  0.036519
 Thermal correction to Gibbs Free Energy=        -0.025370
 Sum of electronic and zero-point Energies=          -3474.098377
 Sum of electronic and thermal Energies=             -3474.081274
 Sum of electronic and thermal Enthalpies=           -3474.080330
 Sum of electronic and thermal Free Energies=        -3474.142219

                     E (Thermal)             CV                S
                      KCal/Mol        Cal/Mol-Kelvin    Cal/Mol-Kelvin
 Total                   22.323             57.116            130.256
 Electronic               0.000              0.000              0.000
 Translational            0.889              2.981             43.328
 Rotational               0.889              2.981             33.212
 Vibrational             20.546             51.154             53.716
 Vibration  1             0.596              1.976              4.636
 Vibration  2             0.609              1.934              3.122
 Vibration  3             0.616              1.909              2.747
 Vibration  4             0.618              1.904              2.686
 Vibration  5             0.623              1.887              2.502
 Vibration  6             0.625              1.880              2.438
 Vibration  7             0.627              1.875              2.396
 Vibration  8             0.631              1.861              2.279
 Vibration  9             0.636              1.847              2.180
 Vibration 10             0.644              1.820              2.009
 Vibration 11             0.649              1.806              1.935
 Vibration 12             0.655              1.787              1.838
 Vibration 13             0.662              1.765              1.739
 Vibration 14             0.666              1.754              1.692
 Vibration 15             0.668              1.747              1.665
 Vibration 16             0.670              1.741              1.642
 Vibration 17             0.677              1.719              1.562
 Vibration 18             0.682              1.706              1.517
 Vibration 19             0.697              1.660              1.377
 Vibration 20             0.699              1.654              1.361
 Vibration 21             0.705              1.638              1.317
 Vibration 22             0.717              1.604              1.233
 Vibration 23             0.719              1.598              1.218
 Vibration 24             0.721              1.593              1.207
 Vibration 25             0.725              1.581              1.179
 Vibration 26             0.744              1.528              1.068
 Vibration 27             0.758              1.490              0.998
 Vibration 28             0.781              1.432              0.900
 Vibration 29             0.861              1.237              0.644
 Vibration 30             0.866              1.225              0.630

 Normal termination of Gaussian 03 at Wed Apr  6 21:13:54 2011.
