 Gaussian 03, Revision E.01,

 --------------------------------------
 # hf/6-311G(d) freq scfcyc=500 scf=xqc
 --------------------------------------

 ------
 si12-c
 ------
 Symbolic Z-matrix:
 Charge =  1 Multiplicity = 2

 SCF Done:  E(UHF) =  -3466.74945925     A.U. after   36 cycles
 Normal termination of Gaussian 03 at Fri Jun 17 20:30:28 2011.
 Gaussian 03:  AM64L-G03RevE.01 11-Sep-2007

 ----------------------------------------------------------------------
 # b3lyp/6-311+G(d) opt=(readfc,noeigentest,maxcycle=500) freq scfcyc=5
 00 optcyc=500 scf=xqc geom=allcheck guess=read
 ----------------------------------------------------------------------

 ------
 No Z-matrix found on checkpoint file.
 Cartesian coordinates read from the checkpoint file:
 S9L-ne-d-01.chk
 Charge =  1 Multiplicity = 2

 SCF Done:  E(UB+HF-LYP) =  -3473.84704336     A.U. after   26 cycles
 SCF Done:  E(UB+HF-LYP) =  -3473.85221647     A.U. after   23 cycles
 SCF Done:  E(UB+HF-LYP) =  -3473.85672228     A.U. after   21 cycles
 SCF Done:  E(UB+HF-LYP) =  -3473.85913996     A.U. after   21 cycles
 SCF Done:  E(UB+HF-LYP) =  -3473.85955053     A.U. after   22 cycles
 SCF Done:  E(UB+HF-LYP) =  -3473.85979488     A.U. after   21 cycles
 SCF Done:  E(UB+HF-LYP) =  -3473.85997998     A.U. after   20 cycles
 SCF Done:  E(UB+HF-LYP) =  -3473.85998677     A.U. after   17 cycles
 SCF Done:  E(UB+HF-LYP) =  -3473.85998686     A.U. after   18 cycles
 SCF Done:  E(UB+HF-LYP) =  -3473.85998737     A.U. after   16 cycles
 Optimization completed.
    -- Stationary point found.

 1\1\GINC-NODE151\FOpt\UB3LYP\6-311+G(d)\Si12(1+,2)\TAM\17-Jun-2011\0\\
 # b3lyp/6-311+G(d) opt=(readfc,noeigentest,maxcycle=500) freq scfcyc=5
 00 optcyc=500 scf=xqc geom=allcheck guess=read\\si12-c\\1,2\Si,3.70166
 0425,-0.0757828254,-0.0235118073\Si,1.8802076452,0.058005094,1.6695360
 981\Si,1.7098450209,0.8177803471,-0.82718517\Si,1.8694882953,-1.726979
 9918,-0.548390704\Si,0.0000535943,-0.8706130584,-1.835151932\Si,-0.000
 0430788,1.5112079099,1.2576428822\Si,-0.0000467867,-1.2954191188,0.948
 7172276\Si,-1.8802095922,0.0579491921,1.6696180393\Si,-1.7098284273,0.

 Normal termination of Gaussian 03 at Fri Jun 17 23:46:33 2011.

 --------------------------------------------------------------------
 #N Geom=AllCheck Guess=Read SCRF=Check GenChk UB3LYP/6-311+G(d) Freq
 --------------------------------------------------------------------

 si12-c
 ------
 Redundant internal coordinates taken from checkpoint file:
 S9L-ne-d-01.chk
 Charge =  1 Multiplicity = 2

                         Standard orientation:
 ---------------------------------------------------------------------
 Center     Atomic     Atomic              Coordinates (Angstroms)
 Number     Number      Type              X           Y           Z
 ---------------------------------------------------------------------
    1         14             0        3.701660   -0.078675   -0.010415
    2         14             0        1.880185    0.337126    1.636199
    3         14             0        1.709864    0.667485   -0.952576
    4         14             0        1.869481   -1.794495   -0.251011
    5         14             0        0.000072   -1.166011   -1.663180
    6         14             0       -0.000047    1.700697    0.986430
    7         14             0       -0.000071   -1.117993    1.152505
    8         14             0       -1.880232    0.337108    1.636232
    9         14             0       -1.709810    0.667490   -0.952551
   10         14             0       -1.869485   -1.794477   -0.251230
   11         14             0       -3.701643   -0.078677   -0.010444
   12         14             0        0.000027    2.320421   -1.319960
 ---------------------------------------------------------------------

 SCF Done:  E(UB+HF-LYP) =  -3473.85998737     A.U. after    1 cycles

 The electronic state is 2-A.
 Alpha  occ. eigenvalues --  -66.27773 -66.27541 -66.27105 -66.27105 -66.26805
 Alpha  occ. eigenvalues --  -66.26805 -66.26710 -66.26687 -66.26686 -66.26311
 Alpha  occ. eigenvalues --  -66.25589 -66.25589  -5.44769  -5.44381  -5.44018
 Alpha  occ. eigenvalues --   -5.44017  -5.43919  -5.43919  -5.43627  -5.43626
 Alpha  occ. eigenvalues --   -5.43561  -5.43310  -5.42368  -5.42368  -3.80741
 Alpha  occ. eigenvalues --   -3.80529  -3.80358  -3.80342  -3.80153  -3.80012
 Alpha  occ. eigenvalues --   -3.79907  -3.79905  -3.79859  -3.79858  -3.79816
 Alpha  occ. eigenvalues --   -3.79816  -3.79756  -3.79756  -3.79563  -3.79563
 Alpha  occ. eigenvalues --   -3.79552  -3.79551  -3.79480  -3.79478  -3.79450
 Alpha  occ. eigenvalues --   -3.79450  -3.79381  -3.79293  -3.79290  -3.79206
 Alpha  occ. eigenvalues --   -3.79195  -3.79189  -3.79019  -3.79016  -3.78151
 Alpha  occ. eigenvalues --   -3.78151  -3.78139  -3.78139  -3.78024  -3.78024
 Alpha  occ. eigenvalues --   -0.82807  -0.76742  -0.72176  -0.69868  -0.67392
 Alpha  occ. eigenvalues --   -0.61166  -0.59355  -0.57800  -0.57147  -0.54466
 Alpha  occ. eigenvalues --   -0.50458  -0.46499  -0.45773  -0.43339  -0.43330
 Alpha  occ. eigenvalues --   -0.42677  -0.40362  -0.39769  -0.39058  -0.37964
 Alpha  occ. eigenvalues --   -0.37909  -0.37395  -0.35390  -0.34486
 Alpha virt. eigenvalues --   -0.24995  -0.23874  -0.23077  -0.22708  -0.21969
 Alpha virt. eigenvalues --   -0.20026  -0.19869  -0.18819  -0.18731  -0.18373
 Alpha virt. eigenvalues --   -0.16445  -0.14643  -0.14479  -0.14284  -0.13419

  Beta  occ. eigenvalues --  -66.27790 -66.27396 -66.27075 -66.27075 -66.26817
  Beta  occ. eigenvalues --  -66.26817 -66.26651 -66.26599 -66.26599 -66.26270
  Beta  occ. eigenvalues --  -66.25583 -66.25583  -5.44784  -5.44224  -5.43988
  Beta  occ. eigenvalues --   -5.43987  -5.43929  -5.43928  -5.43532  -5.43531
  Beta  occ. eigenvalues --   -5.43503  -5.43261  -5.42363  -5.42362  -3.80792
  Beta  occ. eigenvalues --   -3.80539  -3.80371  -3.80050  -3.79929  -3.79922
  Beta  occ. eigenvalues --   -3.79856  -3.79855  -3.79848  -3.79848  -3.79799
  Beta  occ. eigenvalues --   -3.79798  -3.79763  -3.79763  -3.79540  -3.79540
  Beta  occ. eigenvalues --   -3.79487  -3.79486  -3.79447  -3.79447  -3.79352
  Beta  occ. eigenvalues --   -3.79260  -3.79242  -3.79242  -3.79172  -3.79141
  Beta  occ. eigenvalues --   -3.79138  -3.79084  -3.78981  -3.78922  -3.78152
  Beta  occ. eigenvalues --   -3.78152  -3.78115  -3.78115  -3.78023  -3.78023
  Beta  occ. eigenvalues --   -0.82590  -0.76542  -0.71814  -0.69416  -0.67226
  Beta  occ. eigenvalues --   -0.60733  -0.59143  -0.57192  -0.57093  -0.54217
  Beta  occ. eigenvalues --   -0.49343  -0.46254  -0.45578  -0.43154  -0.43026
  Beta  occ. eigenvalues --   -0.42466  -0.39670  -0.39487  -0.38252  -0.37683
  Beta  occ. eigenvalues --   -0.37465  -0.37190  -0.35150
  Beta virt. eigenvalues --   -0.29516  -0.24816  -0.23796  -0.22439  -0.22254
  Beta virt. eigenvalues --   -0.21785  -0.19775  -0.19723  -0.18575  -0.18211
  Beta virt. eigenvalues --   -0.18077  -0.16100  -0.14293  -0.14264  -0.13813

 Mulliken atomic charges:
              1
     1  Si   0.367791
     2  Si  -0.420095
     3  Si   0.274698
     4  Si  -0.137807
     5  Si  -0.168902
     6  Si   0.324773
     7  Si   0.977262
     8  Si  -0.420024
     9  Si   0.274633
    10  Si  -0.137913
    11  Si   0.367827
    12  Si  -0.302242
 Sum of Mulliken charges=   1.00000

 Dipole moment (field-independent basis, Debye):
    X=     0.0001    Y=    -0.0282    Z=    -0.0352  Tot=     0.0451
 Quadrupole moment (field-independent basis, Debye-Ang):
   XX=  -123.9795   YY=  -136.4058   ZZ=  -140.1360
   XY=     0.0001   XZ=    -0.0002   YZ=    -0.1779

  Exact polarizability: 459.850   0.000 304.685   0.000  -1.168 276.589
 Approx polarizability:1533.433   0.0001097.799  -0.009  -2.565 958.471

                     1                      2                      3
                     A                      A                      A
 Frequencies --    93.4586               106.1364               129.0148
 Red. masses --    27.9769                27.9769                27.9769
 Frc consts  --     0.1440                 0.1857                 0.2744
 IR Inten    --     0.5499                 0.0736                 0.0300

                     4                      5                      6
                     A                      A                      A
 Frequencies --   144.2238               154.4174               156.5558
 Red. masses --    27.9769                27.9769                27.9769
 Frc consts  --     0.3429                 0.3930                 0.4040
 IR Inten    --     0.0576                 0.2849                 0.2162

                     7                      8                      9
                     A                      A                      A
 Frequencies --   172.6267               189.0824               194.1860
 Red. masses --    27.9769                27.9769                27.9769
 Frc consts  --     0.4912                 0.5893                 0.6216
 IR Inten    --     1.0815                 0.0010                 0.0233

                    10                     11                     12
                     A                      A                      A
 Frequencies --   212.5720               212.6447               213.7461
 Red. masses --    27.9769                27.9769                27.9769
 Frc consts  --     0.7448                 0.7453                 0.7531
 IR Inten    --     0.7086                 1.1776                 0.5415

                    13                     14                     15
                     A                      A                      A
 Frequencies --   227.3665               233.1525               243.1919
 Red. masses --    27.9769                27.9769                27.9769
 Frc consts  --     0.8521                 0.8960                 0.9749
 IR Inten    --     0.3126                 0.0049                 0.6924

                    16                     17                     18
                     A                      A                      A
 Frequencies --   255.7176               261.7018               267.2403
 Red. masses --    27.9769                27.9769                27.9769
 Frc consts  --     1.0779                 1.1289                 1.1772
 IR Inten    --     0.1412                 0.2576                 0.0823

                    19                     20                     21
                     A                      A                      A
 Frequencies --   291.4888               304.5395               313.6645
 Red. masses --    27.9769                27.9769                27.9769
 Frc consts  --     1.4005                 1.5288                 1.6217
 IR Inten    --     1.3236                 1.1328                 4.3023

                    22                     23                     24
                     A                      A                      A
 Frequencies --   318.1573               335.3851               351.2157
 Red. masses --    27.9769                27.9769                27.9769
 Frc consts  --     1.6685                 1.8541                 2.0333
 IR Inten    --     0.6583                10.2928                 1.3700

                    25                     26                     27
                     A                      A                      A
 Frequencies --   369.5927               371.9567               407.1655
 Red. masses --    27.9769                27.9769                27.9769
 Frc consts  --     2.2516                 2.2805                 2.7327
 IR Inten    --     0.0140                 7.5783                 1.6152

                    28                     29                     30
                     A                      A                      A
 Frequencies --   407.5433               469.6470               480.6857
 Red. masses --    27.9769                27.9769                27.9769
 Frc consts  --     2.7378                 3.6357                 3.8087
 IR Inten    --     6.7233                36.3977                 7.4111

 - Thermochemistry -
 -------------------
 Temperature   298.150 Kelvin.  Pressure   1.00000 Atm.
 Atom  1 has atomic number 14 and mass  27.97693

 Molecular mass:   335.72314 amu.
 Principal axes and moments of inertia in atomic units:
                           1         2         3
     EIGENVALUES --  3253.245876136.025166570.82838
           X            1.00000   0.00000   0.00000
           Y            0.00000   1.00000   0.00000
           Z            0.00000   0.00000   1.00000
 This molecule is an asymmetric top.
 Rotational symmetry number  1.
 Warning -- assumption of classical behavior for rotation
           may cause significant error
 Rotational temperatures (Kelvin)      0.02662     0.01412     0.01318
 Rotational constants (GHZ):           0.55475     0.29412     0.27466
 Zero-point vibrational energy      47181.2 (Joules/Mol)
                                   11.27657 (Kcal/Mol)
 Warning -- explicit consideration of  30 degrees of freedom as
           vibrations may cause significant error
 Vibrational temperatures:    134.47   152.71   185.62   207.51   222.17
          (Kelvin)            225.25   248.37   272.05   279.39   305.84
                              305.95   307.53   327.13   335.45   349.90
                              367.92   376.53   384.50   419.39   438.16
                              451.29   457.76   482.54   505.32   531.76
                              535.16   585.82   586.36   675.72   691.60

 Zero-point correction=                           0.017970 (Hartree/Particle)
 Thermal correction to Energy=                    0.035340
 Thermal correction to Enthalpy=                  0.036284
 Thermal correction to Gibbs Free Energy=        -0.026692
 Sum of electronic and zero-point Energies=          -3473.842017
 Sum of electronic and thermal Energies=             -3473.824647
 Sum of electronic and thermal Enthalpies=           -3473.823703
 Sum of electronic and thermal Free Energies=        -3473.886680

                     E (Thermal)             CV                S
                      KCal/Mol        Cal/Mol-Kelvin    Cal/Mol-Kelvin
 Total                   22.176             57.523            132.545
 Electronic               0.000              0.000              1.377
 Translational            0.889              2.981             43.328
 Rotational               0.889              2.981             33.239
 Vibrational             20.399             51.562             54.601
 Vibration  1             0.602              1.954              3.586
 Vibration  2             0.605              1.944              3.338
 Vibration  3             0.612              1.924              2.961
 Vibration  4             0.616              1.909              2.747
 Vibration  5             0.620              1.898              2.617
 Vibration  6             0.620              1.895              2.591
 Vibration  7             0.626              1.876              2.407
 Vibration  8             0.633              1.855              2.237
 Vibration  9             0.635              1.848              2.187
 Vibration 10             0.644              1.822              2.021
 Vibration 11             0.644              1.822              2.021
 Vibration 12             0.644              1.820              2.011
 Vibration 13             0.651              1.799              1.900
 Vibration 14             0.654              1.790              1.855
 Vibration 15             0.659              1.774              1.779
 Vibration 16             0.666              1.753              1.691
 Vibration 17             0.669              1.743              1.650
 Vibration 18             0.672              1.733              1.614
 Vibration 19             0.687              1.690              1.465
 Vibration 20             0.695              1.665              1.392
 Vibration 21             0.702              1.648              1.343
 Vibration 22             0.705              1.639              1.320
 Vibration 23             0.717              1.605              1.234
 Vibration 24             0.728              1.573              1.161
 Vibration 25             0.742              1.535              1.081
 Vibration 26             0.744              1.530              1.072
 Vibration 27             0.772              1.455              0.937
 Vibration 28             0.772              1.454              0.935
 Vibration 29             0.827              1.317              0.739
 Vibration 30             0.837              1.293              0.708

 Optimization completed.
    -- Stationary point found.

 1\1\GINC-NODE151\Freq\UB3LYP\6-311+G(d)\Si12(1+,2)\TAM\18-Jun-2011\0\\
 #N Geom=AllCheck Guess=Read SCRF=Check GenChk UB3LYP/6-311+G(d) Freq\\
 si12-c\\1,2\Si,3.701660425,-0.0757828254,-0.0235118073\Si,1.8802076452
 ,0.058005094,1.6695360981\Si,1.7098450209,0.8177803471,-0.82718517\Si,
 1.8694882953,-1.7269799918,-0.548390704\Si,0.0000535943,-0.8706130584,
 -1.835151932\Si,-0.0000430788,1.5112079099,1.2576428822\Si,-0.00004678
 67,-1.2954191188,0.9487172276\Si,-1.8802095922,0.0579491921,1.66961803
 93\Si,-1.7098284273,0.8177520524,-0.8271124587\Si,-1.8694780504,-1.726

 Normal termination of Gaussian 03 at Sat Jun 18 01:37:31 2011.
