 Gaussian 03, Revision E.01,

 ----------------------------------------------------------------------
 # b3lyp/LANL2DZ opt=(calcall,noeigentest,maxcycle=500) scfcyc=500 scf=
 xqc
 ----------------------------------------------------------------------

 ------
 si13-n
 ------
 Symbolic Z-matrix:
 Charge =  0 Multiplicity = 1

 SCF Done:  E(RB+HF-LYP) =  -49.9754428820     A.U. after   19 cycles
 SCF Done:  E(RB+HF-LYP) =  -50.0124108177     A.U. after   15 cycles
 SCF Done:  E(RB+HF-LYP) =  -50.0557702326     A.U. after   16 cycles
 SCF Done:  E(RB+HF-LYP) =  -50.0899618195     A.U. after   16 cycles
 SCF Done:  E(RB+HF-LYP) =  -50.1161891126     A.U. after   17 cycles
 SCF Done:  E(RB+HF-LYP) =  -50.1354569427     A.U. after   17 cycles
 SCF Done:  E(RB+HF-LYP) =  -50.1486071199     A.U. after   16 cycles
 SCF Done:  E(RB+HF-LYP) =  -50.1563483793     A.U. after   16 cycles
 SCF Done:  E(RB+HF-LYP) =  -50.1592821191     A.U. after   17 cycles
 SCF Done:  E(RB+HF-LYP) =  -50.1650389099     A.U. after   16 cycles
 Optimization completed.
    -- Stationary point found.
 Normal termination of Gaussian 03 at Sun Nov 27 17:14:43 2011.

 ----------------------------------------------------------------------
 # b3lyp/6-31G(d) opt=(readfc,noeigentest,maxcycle=500) freq scfcyc=500
  optcyc=500 geom=allcheck guess=read scf=xqc
 ----------------------------------------------------------------------

 si13-n
 ------
 Redundant internal coordinates taken from checkpoint file:
 S9L-ne-d-01.chk
 Charge =  0 Multiplicity = 1

 SCF Done:  E(RB+HF-LYP) =  -3763.32288710     A.U. after   15 cycles
 SCF Done:  E(RB+HF-LYP) =  -3763.32292308     A.U. after   12 cycles
 SCF Done:  E(RB+HF-LYP) =  -3763.32292667     A.U. after   10 cycles
 Optimization completed.
 Normal termination of Gaussian 03 at Sun Nov 27 17:36:27 2011.

 ------------------------------------------------------------------
 #N Geom=AllCheck Guess=Read SCRF=Check GenChk RB3LYP/6-31G(d) Freq
 ------------------------------------------------------------------

 si13-n
 ------
 Redundant internal coordinates taken from checkpoint file:
 S9L-ne-d-01.chk
 Charge =  0 Multiplicity = 1

 SCF Done:  E(RB+HF-LYP) =  -3763.32292667     A.U. after    1 cycles
 Normal termination of Gaussian 03 at Sun Nov 27 17:42:32 2011.

 ----------------------------------------------------------------------
 # b3lyp/6-311G(d) opt=(readfc,noeigentest,maxcycle=500) freq scfcyc=50
 0 optcyc=500 geom=allcheck guess=read scf=xqc
 ----------------------------------------------------------------------

 si13-n
 ------
 Redundant internal coordinates taken from checkpoint file:
 S9L-ne-d-01.chk
 Charge =  0 Multiplicity = 1

 SCF Done:  E(RB+HF-LYP) =  -3763.59764317     A.U. after   13 cycles
 SCF Done:  E(RB+HF-LYP) =  -3763.59769945     A.U. after   14 cycles
 Normal termination of Gaussian 03 at Sun Nov 27 17:47:21 2011.

 -------------------------------------------------------------------
 #N Geom=AllCheck Guess=Read SCRF=Check GenChk RB3LYP/6-311G(d) Freq
 -------------------------------------------------------------------

 si13-n
 ------
 Redundant internal coordinates taken from checkpoint file:
 S9L-ne-d-01.chk
 Charge =  0 Multiplicity = 1

 SCF Done:  E(RB+HF-LYP) =  -3763.59769945     A.U. after    1 cycles
 Normal termination of Gaussian 03 at Sun Nov 27 18:00:06 2011.
 Gaussian 03:  AM64L-G03RevE.01 11-Sep-2007

 ----------------------------------------------------------------------
 # b3lyp/6-311+G(d) opt=(readfc,noeigentest,maxcycle=500) freq scfcyc=5
 00 optcyc=500 scf=xqc geom=allcheck guess=read
 ----------------------------------------------------------------------

 si13-n
 ------
 Redundant internal coordinates taken from checkpoint file:
 S9L-ne-d-01.chk
 Charge =  0 Multiplicity = 1

 SCF Done:  E(RB+HF-LYP) =  -3763.60619173     A.U. after   14 cycles
 SCF Done:  E(RB+HF-LYP) =  -3763.60619905     A.U. after   12 cycles
    -- Stationary point found.
 Normal termination of Gaussian 03 at Sun Nov 27 18:07:25 2011.

                         Standard orientation:
 ---------------------------------------------------------------------
 Center     Atomic     Atomic              Coordinates (Angstroms)
 Number     Number      Type              X           Y           Z
 ---------------------------------------------------------------------
    1         14             0        0.000000    2.038747   -2.562040
    2         14             0        0.000000   -1.310529   -0.265656
    3         14             0        1.315922    0.000000   -2.544377
    4         14             0       -1.315922    0.000000   -2.544377
    5         14             0        0.000000    1.310529   -0.265656
    6         14             0        2.150601    0.000000   -0.028096
    7         14             0        0.000000   -2.038747   -2.562040
    8         14             0       -1.447434    1.376594    1.869737
    9         14             0        1.447434    1.376594    1.869737
   10         14             0        0.000000    0.000000    3.321388
   11         14             0       -2.150601    0.000000   -0.028096
   12         14             0       -1.447434   -1.376594    1.869737
   13         14             0        1.447434   -1.376594    1.869737
 ---------------------------------------------------------------------

 SCF Done:  E(RB+HF-LYP) =  -3763.60619905     A.U. after    2 cycles

 The electronic state is 1-A1.
 Alpha  occ. eigenvalues --  -66.13857 -66.13857 -66.13138 -66.13138 -66.13120
 Alpha  occ. eigenvalues --  -66.13057 -66.13057 -66.13057 -66.13057 -66.13042
 Alpha  occ. eigenvalues --  -66.13042 -66.11712 -66.11712  -5.30924  -5.30920
 Alpha  occ. eigenvalues --   -5.30165  -5.30165  -5.30038  -5.29959  -5.29955
 Alpha  occ. eigenvalues --   -5.29928  -5.29926  -5.29926  -5.29923  -5.28621
 Alpha  occ. eigenvalues --   -5.28620  -3.66771  -3.66758  -3.66756  -3.66754
 Alpha  occ. eigenvalues --   -3.66574  -3.66569  -3.65989  -3.65989  -3.65939
 Alpha  occ. eigenvalues --   -3.65938  -3.65932  -3.65932  -3.65908  -3.65809
 Alpha  occ. eigenvalues --   -3.65809  -3.65769  -3.65755  -3.65753  -3.65751
 Alpha  occ. eigenvalues --   -3.65750  -3.65721  -3.65705  -3.65690  -3.65627
 Alpha  occ. eigenvalues --   -3.65626  -3.65624  -3.65623  -3.65619  -3.65619
 Alpha  occ. eigenvalues --   -3.65615  -3.65615  -3.65487  -3.65486  -3.64465
 Alpha  occ. eigenvalues --   -3.64464  -3.64369  -3.64369  -3.64261  -3.64260
 Alpha  occ. eigenvalues --   -0.69247  -0.62822  -0.59252  -0.56151  -0.54708
 Alpha  occ. eigenvalues --   -0.50604  -0.48259  -0.44047  -0.42945  -0.40807
 Alpha  occ. eigenvalues --   -0.39576  -0.38739  -0.36706  -0.31725  -0.29901
 Alpha  occ. eigenvalues --   -0.29742  -0.27758  -0.27720  -0.26542  -0.25669
 Alpha  occ. eigenvalues --   -0.24843  -0.23726  -0.23516  -0.23415  -0.22827
 Alpha  occ. eigenvalues --   -0.21019
 Alpha virt. eigenvalues --   -0.14550  -0.11569  -0.11098  -0.09938  -0.07580
 Alpha virt. eigenvalues --   -0.06793  -0.06430  -0.06057  -0.05578  -0.05565
 Alpha virt. eigenvalues --   -0.04650  -0.03284  -0.02803  -0.02429  -0.02028

 Mulliken atomic charges:
              1
     1  Si  -0.069478
     2  Si   0.744608
     3  Si   0.115549
     4  Si   0.115549
     5  Si   0.744608
     6  Si  -0.155621
     7  Si  -0.069478
     8  Si  -0.499681
     9  Si  -0.499681
    10  Si   0.728609
    11  Si  -0.155621
    12  Si  -0.499681
    13  Si  -0.499681
 Sum of Mulliken charges=   0.00000

 Dipole moment (field-independent basis, Debye):
    X=     0.0000    Y=     0.0000    Z=    -0.3479  Tot=     0.3479
 Quadrupole moment (field-independent basis, Debye-Ang):
   XX=  -172.0892   YY=  -176.6751   ZZ=  -175.6440
   XY=     0.0000   XZ=     0.0000   YZ=     0.0000

  Exact polarizability: 356.075   0.000 357.598   0.000   0.000 504.931
 Approx polarizability:1302.602   0.0001186.171   0.000   0.0001745.643

                     1                      2                      3
                    B1                     B2                     A2
 Frequencies --    40.1972                61.4066               103.9271
 Red. masses --    27.9769                27.9769                27.9769
 Frc consts  --     0.0266                 0.0622                 0.1780
 IR Inten    --     1.0871                 0.0123                 0.0000

                     4                      5                      6
                    B2                     A1                     A2
 Frequencies --   110.9846               143.5122               143.7363
 Red. masses --    27.9769                27.9769                27.9769
 Frc consts  --     0.2030                 0.3395                 0.3406
 IR Inten    --     1.6798                 0.6005                 0.0000

                     7                      8                      9
                    B1                     A1                     B2
 Frequencies --   157.5703               169.6673               172.2620
 Red. masses --    27.9769                27.9769                27.9769
 Frc consts  --     0.4093                 0.4745                 0.4891
 IR Inten    --     0.2108                 0.0062                 0.1589

                    10                     11                     12
                    B1                     A1                     B2
 Frequencies --   177.6262               185.9149               202.1991
 Red. masses --    27.9769                27.9769                27.9769
 Frc consts  --     0.5201                 0.5697                 0.6739
 IR Inten    --     0.1204                 0.0629                 0.9891

                    13                     14                     15
                    A2                     A1                     B1
 Frequencies --   219.5964               221.4296               237.9983
 Red. masses --    27.9769                27.9769                27.9769
 Frc consts  --     0.7949                 0.8082                 0.9337
 IR Inten    --     0.0000                 0.2497                 0.0404

                    16                     17                     18
                    A1                     B1                     B1
 Frequencies --   246.3743               252.5928               258.4234
 Red. masses --    27.9769                27.9769                27.9769
 Frc consts  --     1.0006                 1.0517                 1.1008
 IR Inten    --     1.6652                 4.4585                 0.8642

                    19                     20                     21
                    A2                     A1                     B2
 Frequencies --   262.3134               277.5326               287.8940
 Red. masses --    27.9769                27.9769                27.9769
 Frc consts  --     1.1342                 1.2696                 1.3662
 IR Inten    --     0.0000                 0.1532                 3.9513

                    22                     23                     24
                    A1                     B2                     A1
 Frequencies --   308.2555               318.1189               325.7448
 Red. masses --    27.9769                27.9769                27.9769
 Frc consts  --     1.5663                 1.6681                 1.7491
 IR Inten    --     0.1106                 2.4676                 1.0585

                    25                     26                     27
                    A2                     B1                     A2
 Frequencies --   328.2985               334.5770               335.3266
 Red. masses --    27.9769                27.9769                27.9769
 Frc consts  --     1.7766                 1.8452                 1.8535
 IR Inten    --     0.0000                 0.0001                 0.0000

                    28                     29                     30
                    A1                     A1                     B1
 Frequencies --   341.3862               354.6977               384.8892
 Red. masses --    27.9769                27.9769                27.9769
 Frc consts  --     1.9211                 2.0738                 2.4419
 IR Inten    --     3.9402                 3.0783                 7.6317

                    31                     32                     33
                    B2                     B2                     A1
 Frequencies --   388.5697               420.1693               425.6049
 Red. masses --    27.9769                27.9769                27.9769
 Frc consts  --     2.4888                 2.9100                 2.9858
 IR Inten    --     5.4623                 3.7645                 1.2558

 - Thermochemistry -
 -------------------
 Temperature   298.150 Kelvin.  Pressure   1.00000 Atm.
 Atom  1 has atomic number 14 and mass  27.97693

 Molecular mass:   363.70007 amu.
 Principal axes and moments of inertia in atomic units:
                           1         2         3
     EIGENVALUES --  4038.429907049.648497226.05798
           X            0.00000   1.00000   0.00000
           Y            0.00000   0.00000   1.00000
           Z            1.00000   0.00000   0.00000
 This molecule is an asymmetric top.
 Rotational symmetry number  2.
 Warning -- assumption of classical behavior for rotation
           may cause significant error
 Rotational temperatures (Kelvin)      0.02145     0.01229     0.01199
 Rotational constants (GHZ):           0.44689     0.25600     0.24975
 Zero-point vibrational energy      49039.7 (Joules/Mol)
                                   11.72077 (Kcal/Mol)
 Warning -- explicit consideration of  33 degrees of freedom as
           vibrations may cause significant error
 Vibrational temperatures:     57.83    88.35   149.53   159.68   206.48
          (Kelvin)            206.80   226.71   244.11   247.85   255.56
                              267.49   290.92   315.95   318.59   342.43
                              354.48   363.42   371.81   377.41   399.31
                              414.21   443.51   457.70   468.67   472.35
                              481.38   482.46   491.18   510.33   553.77
                              559.06   604.53   612.35

 Zero-point correction=                           0.018678 (Hartree/Particle)
 Thermal correction to Energy=                    0.038162
 Thermal correction to Enthalpy=                  0.039106
 Thermal correction to Gibbs Free Energy=        -0.028003
 Sum of electronic and zero-point Energies=          -3763.587521
 Sum of electronic and thermal Energies=             -3763.568037
 Sum of electronic and thermal Enthalpies=           -3763.567093
 Sum of electronic and thermal Free Energies=        -3763.634203

                     E (Thermal)             CV                S
                      KCal/Mol        Cal/Mol-Kelvin    Cal/Mol-Kelvin
 Total                   23.947             63.416            141.245
 Electronic               0.000              0.000              0.000
 Translational            0.889              2.981             43.567
 Rotational               0.889              2.981             32.309
 Vibrational             22.170             57.454             65.369
 Vibration  1             0.594              1.981              5.249
 Vibration  2             0.597              1.973              4.411
 Vibration  3             0.605              1.946              3.379
 Vibration  4             0.607              1.940              3.252
 Vibration  5             0.616              1.910              2.757
 Vibration  6             0.616              1.909              2.754
 Vibration  7             0.621              1.894              2.579
 Vibration  8             0.625              1.880              2.439
 Vibration  9             0.626              1.877              2.411
 Vibration 10             0.628              1.870              2.353
 Vibration 11             0.632              1.859              2.268
 Vibration 12             0.639              1.837              2.113
 Vibration 13             0.647              1.811              1.962
 Vibration 14             0.648              1.808              1.947
 Vibration 15             0.656              1.782              1.818
 Vibration 16             0.661              1.769              1.756
 Vibration 17             0.664              1.758              1.712
 Vibration 18             0.667              1.749              1.672
 Vibration 19             0.670              1.742              1.646
 Vibration 20             0.679              1.715              1.549
 Vibration 21             0.685              1.696              1.486
 Vibration 22             0.698              1.658              1.372
 Vibration 23             0.705              1.639              1.320
 Vibration 24             0.710              1.624              1.281
 Vibration 25             0.712              1.619              1.268
 Vibration 26             0.716              1.606              1.238
 Vibration 27             0.716              1.605              1.234
 Vibration 28             0.721              1.593              1.206
 Vibration 29             0.731              1.566              1.145
 Vibration 30             0.754              1.502              1.020
 Vibration 31             0.757              1.495              1.006
 Vibration 32             0.783              1.426              0.891
 Vibration 33             0.787              1.415              0.873

 Optimization completed.
    -- Stationary point found.
 Normal termination of Gaussian 03 at Sun Nov 27 18:31:42 2011.
