 Gaussian 09, Revision A.02,

 -----------------------------------------
 # b3lyp/6-311G(d) freq scfcyc=500 scf=xqc
 -----------------------------------------

 ------
 si13-n
 ------
 Symbolic Z-matrix:
 Charge =  0 Multiplicity = 1

 SCF Done:  E(RB3LYP) =  -3763.55944277     A.U. after   20 cycles
 ******    3 imaginary frequencies (negative Signs) ******
    3 imaginary frequencies ignored.
 Normal termination of Gaussian 09 at Fri Jan 18 13:23:47 2013.
 Gaussian 09:  AM64L-G09RevA.02 11-Jun-2009

 ----------------------------------------------------------------------
 # b3lyp/6-311+G(d) opt=(readfc,noeigentest,maxcycle=500) freq scfcyc=5
 00 optcyc=500 scf=xqc geom=allcheck guess=read
 ----------------------------------------------------------------------

 ------
 No Z-matrix found on checkpoint file.
 Cartesian coordinates read from the checkpoint file:
 S9L-ne-d-01.chk
 Charge =  0 Multiplicity = 1

 SCF Done:  E(RB3LYP) =  -3763.56880385     A.U. after   15 cycles
 SCF Done:  E(RB3LYP) =  -3763.58444697     A.U. after   46 cycles
 SCF Done:  E(RB3LYP) =  -3763.59939906     A.U. after   27 cycles
 SCF Done:  E(RB3LYP) =  -3763.61282202     A.U. after   19 cycles
 SCF Done:  E(RB3LYP) =  -3763.62149797     A.U. after   18 cycles
 SCF Done:  E(RB3LYP) =  -3763.62677141     A.U. after   19 cycles
 SCF Done:  E(RB3LYP) =  -3763.62891474     A.U. after   19 cycles
 SCF Done:  E(RB3LYP) =  -3763.62103506     A.U. after   24 cycles
 SCF Done:  E(RB3LYP) =  -3763.62915025     A.U. after   24 cycles
 SCF Done:  E(RB3LYP) =  -3763.62966857     A.U. after   16 cycles
 SCF Done:  E(RB3LYP) =  -3763.62948455     A.U. after   28 cycles
 SCF Done:  E(RB3LYP) =  -3763.62972017     A.U. after   16 cycles
 SCF Done:  E(RB3LYP) =  -3763.62978684     A.U. after   23 cycles
 SCF Done:  E(RB3LYP) =  -3763.62979792     A.U. after   14 cycles
 SCF Done:  E(RB3LYP) =  -3763.62979884     A.U. after   13 cycles
 SCF Done:  E(RB3LYP) =  -3763.62979918     A.U. after   13 cycles
 Optimization completed.
    -- Stationary point found.
 Normal termination of Gaussian 09 at Fri Jan 18 15:33:01 2013.

 ----------------------------------------------------------------------
 #N Geom=AllCheck Guess=TCheck SCRF=Check GenChk RB3LYP/6-311+G(d) Freq
 ----------------------------------------------------------------------

 si13-n
 ------
 Redundant internal coordinates taken from checkpoint file:
 S9L-ne-d-01.chk
 Charge =  0 Multiplicity = 1

                         Standard orientation:
 ---------------------------------------------------------------------
 Center     Atomic      Atomic             Coordinates (Angstroms)
 Number     Number       Type             X           Y           Z
 ---------------------------------------------------------------------
      1         14           0       -1.754465    0.000101    1.570856
      2         14           0       -3.573891    0.000093   -0.079374
      3         14           0       -1.565458    1.222083   -0.721840
      4         14           0        0.000140    1.612959    1.443453
      5         14           0        1.565501    1.221934   -0.721816
      6         14           0        3.573914   -0.000128   -0.079443
      7         14           0        1.565336   -1.222040   -0.721905
      8         14           0       -0.000117   -0.000006   -2.286234
      9         14           0       -1.565519   -1.221939   -0.721715
     10         14           0       -0.000029   -1.612932    1.443430
     11         14           0        1.754580   -0.000167    1.570744
     12         14           0        0.000182    3.091660   -0.348063
     13         14           0       -0.000175   -3.091619   -0.348094
 ---------------------------------------------------------------------

 SCF Done:  E(RB3LYP) =  -3763.62979918     A.U. after    1 cycles

 The electronic state is 1-A.
 Alpha  occ. eigenvalues --  -66.13304 -66.13304 -66.13304 -66.13304 -66.12789
 Alpha  occ. eigenvalues --  -66.12789 -66.12268 -66.12267 -66.11861 -66.11860
 Alpha  occ. eigenvalues --  -66.11822 -66.11634 -66.11634  -5.30358  -5.30357
 Alpha  occ. eigenvalues --   -5.30352  -5.30350  -5.29668  -5.29667  -5.29401
 Alpha  occ. eigenvalues --   -5.29400  -5.28988  -5.28987  -5.28746  -5.28437
 Alpha  occ. eigenvalues --   -5.28436  -3.66240  -3.66240  -3.66236  -3.66236
 Alpha  occ. eigenvalues --   -3.66198  -3.66198  -3.66165  -3.66165  -3.65970
 Alpha  occ. eigenvalues --   -3.65968  -3.65963  -3.65961  -3.65510  -3.65510
 Alpha  occ. eigenvalues --   -3.65442  -3.65441  -3.65347  -3.65347  -3.65274
 Alpha  occ. eigenvalues --   -3.65274  -3.65176  -3.65175  -3.64999  -3.64998
 Alpha  occ. eigenvalues --   -3.64886  -3.64886  -3.64773  -3.64773  -3.64608
 Alpha  occ. eigenvalues --   -3.64607  -3.64545  -3.64518  -3.64403  -3.64212
 Alpha  occ. eigenvalues --   -3.64212  -3.64205  -3.64205  -3.64108  -3.64108
 Alpha  occ. eigenvalues --   -0.68945  -0.62945  -0.60542  -0.57055  -0.54712
 Alpha  occ. eigenvalues --   -0.48577  -0.46199  -0.45329  -0.43843  -0.42552
 Alpha  occ. eigenvalues --   -0.38760  -0.37385  -0.33648  -0.31564  -0.30565
 Alpha  occ. eigenvalues --   -0.29344  -0.28707  -0.28363  -0.27881  -0.25591
 Alpha  occ. eigenvalues --   -0.24573  -0.23930  -0.23584  -0.23422  -0.21355
 Alpha  occ. eigenvalues --   -0.20312
 Alpha virt. eigenvalues --   -0.11891  -0.11630  -0.11393  -0.09260  -0.06639
 Alpha virt. eigenvalues --   -0.06559  -0.06422  -0.06100  -0.05110  -0.04724
 Alpha virt. eigenvalues --   -0.04539  -0.03272  -0.03066  -0.02237  -0.00292

 Mulliken atomic charges:
              1
     1  Si  -0.514246
     2  Si   0.530044
     3  Si   0.312184
     4  Si   0.405158
     5  Si   0.312163
     6  Si   0.530069
     7  Si   0.312271
     8  Si  -1.193684
     9  Si   0.312233
    10  Si   0.405179
    11  Si  -0.514253
    12  Si  -0.448516
    13  Si  -0.448603
 Sum of Mulliken atomic charges =   0.00000

 Dipole moment (field-independent basis, Debye):
    X=              0.0001    Y=              0.0001    Z=              0.8386  Tot=              0.8386
 Quadrupole moment (field-independent basis, Debye-Ang):
   XX=           -178.3842   YY=           -168.3742   ZZ=           -172.4354
   XY=              0.0012   XZ=              0.0015   YZ=             -0.0002

  Exact polarizability: 464.978   0.000 405.221  -0.001   0.000 322.507
 Approx polarizability:1412.832   0.0131363.920   0.014  -0.0051106.922

                     1                      2                      3
                     A                      A                      A
 Frequencies --   105.7341               116.2733               152.6678
 Red. masses --    27.9769                27.9769                27.9769
 Frc consts  --     0.1843                 0.2228                 0.3842
 IR Inten    --     0.3462                 0.0363                 0.0000

                     4                      5                      6
                     A                      A                      A
 Frequencies --   162.5263               162.7366               171.5429
 Red. masses --    27.9769                27.9769                27.9769
 Frc consts  --     0.4354                 0.4365                 0.4851
 IR Inten    --     0.0393                 0.0000                 0.5450

                     7                      8                      9
                     A                      A                      A
 Frequencies --   182.7635               185.0788               185.7684
 Red. masses --    27.9769                27.9769                27.9769
 Frc consts  --     0.5506                 0.5646                 0.5688
 IR Inten    --     0.4627                 0.0000                 1.4498

                    10                     11                     12
                     A                      A                      A
 Frequencies --   195.5043               201.0140               202.1975
 Red. masses --    27.9769                27.9769                27.9769
 Frc consts  --     0.6300                 0.6660                 0.6739
 IR Inten    --     0.1671                 0.0825                 2.3590

                    13                     14                     15
                     A                      A                      A
 Frequencies --   213.8330               216.1686               223.2640
 Red. masses --    27.9769                27.9769                27.9769
 Frc consts  --     0.7537                 0.7703                 0.8217
 IR Inten    --     0.6816                 0.4675                 3.0185

                    16                     17                     18
                     A                      A                      A
 Frequencies --   243.4321               245.5709               254.1372
 Red. masses --    27.9769                27.9769                27.9769
 Frc consts  --     0.9768                 0.9940                 1.0646
 IR Inten    --     0.0000                 0.3888                 0.7523

                    19                     20                     21
                     A                      A                      A
 Frequencies --   280.8320               293.7543               310.7001
 Red. masses --    27.9769                27.9769                27.9769
 Frc consts  --     1.3000                 1.4224                 1.5912
 IR Inten    --     2.4918                 0.1509                 0.7161

                    22                     23                     24
                     A                      A                      A
 Frequencies --   313.6355               339.4153               371.0724
 Red. masses --    27.9769                27.9769                27.9769
 Frc consts  --     1.6214                 1.8989                 2.2697
 IR Inten    --     1.5365                 0.2271                 0.0000

                    25                     26                     27
                     A                      A                      A
 Frequencies --   382.0971               385.7203               389.6447
 Red. masses --    27.9769                27.9769                27.9769
 Frc consts  --     2.4066                 2.4524                 2.5026
 IR Inten    --     3.9375                 0.0001                 2.1300

                    28                     29                     30
                     A                      A                      A
 Frequencies --   392.2447               396.5606               454.9426
 Red. masses --    27.9769                27.9769                27.9769
 Frc consts  --     2.5361                 2.5922                 3.4116
 IR Inten    --     5.2332                 0.0154                24.8502

                    31                     32                     33
                     A                      A                      A
 Frequencies --   455.3218               462.4355               477.1309
 Red. masses --    27.9769                27.9769                27.9769
 Frc consts  --     3.4173                 3.5249                 3.7525
 IR Inten    --     3.8147                 0.4883                 9.6159

 - Thermochemistry -
 -------------------
 Temperature   298.150 Kelvin.  Pressure   1.00000 Atm.
 Atom     1 has atomic number 14 and mass  27.97693

 Molecular mass:   363.70007 amu.
 Principal axes and moments of inertia in atomic units:
                           1         2         3
     Eigenvalues --  4691.707095811.874087173.11626
           X            1.00000   0.00000   0.00000
           Y            0.00000   1.00000   0.00000
           Z            0.00000   0.00000   1.00000
 This molecule is an asymmetric top.
 Rotational symmetry number  1.
 Warning -- assumption of classical behavior for rotation
           may cause significant error
 Rotational temperatures (Kelvin)      0.01846     0.01490     0.01207
 Rotational constants (GHZ):           0.38467     0.31053     0.25160
 Zero-point vibrational energy      54583.9 (Joules/Mol)
                                   13.04587 (Kcal/Mol)
 Warning -- explicit consideration of  33 degrees of freedom as
           vibrations may cause significant error
 Vibrational temperatures:    152.13   167.29   219.65   233.84   234.14
          (Kelvin)            246.81   262.96   266.29   267.28   281.29
                              289.21   290.92   307.66   311.02   321.23
                              350.24   353.32   365.65   404.05   422.65
                              447.03   451.25   488.34   533.89   549.75
                              554.96   560.61   564.35   570.56   654.56
                              655.11   665.34   686.48

 Zero-point correction=                           0.020790 (Hartree/Particle)
 Thermal correction to Energy=                    0.039057
 Thermal correction to Enthalpy=                  0.040002
 Thermal correction to Gibbs Free Energy=        -0.023792
 Sum of electronic and zero-point Energies=          -3763.609009
 Sum of electronic and thermal Energies=             -3763.590742
 Sum of electronic and thermal Enthalpies=           -3763.589798
 Sum of electronic and thermal Free Energies=        -3763.653591

                     E (Thermal)             CV                S
                      KCal/Mol        Cal/Mol-Kelvin    Cal/Mol-Kelvin
 Total                   24.509             61.864            134.265
 Electronic               0.000              0.000              0.000
 Translational            0.889              2.981             43.567
 Rotational               0.889              2.981             33.636
 Vibrational             22.731             55.903             57.063
 Vibration     1          0.605              1.945              3.346
 Vibration     2          0.608              1.936              3.161
 Vibration     3          0.619              1.900              2.639
 Vibration     4          0.623              1.888              2.520
 Vibration     5          0.623              1.888              2.518
 Vibration     6          0.626              1.878              2.419
 Vibration     7          0.630              1.863              2.300
 Vibration     8          0.631              1.860              2.277
 Vibration     9          0.632              1.859              2.270
 Vibration    10          0.636              1.846              2.175
 Vibration    11          0.638              1.838              2.124
 Vibration    12          0.639              1.837              2.113
 Vibration    13          0.644              1.820              2.011
 Vibration    14          0.645              1.816              1.991
 Vibration    15          0.649              1.806              1.932
 Vibration    16          0.659              1.774              1.778
 Vibration    17          0.660              1.770              1.762
 Vibration    18          0.665              1.756              1.702
 Vibration    19          0.681              1.709              1.529
 Vibration    20          0.689              1.685              1.452
 Vibration    21          0.700              1.653              1.359
 Vibration    22          0.701              1.648              1.343
 Vibration    23          0.719              1.597              1.215
 Vibration    24          0.743              1.532              1.075
 Vibration    25          0.752              1.508              1.031
 Vibration    26          0.754              1.501              1.017
 Vibration    27          0.758              1.492              1.002
 Vibration    28          0.760              1.487              0.992
 Vibration    29          0.763              1.478              0.975
 Vibration    30          0.813              1.350              0.781
 Vibration    31          0.814              1.349              0.780
 Vibration    32          0.820              1.333              0.759
 Vibration    33          0.834              1.301              0.718

 Optimization completed.
    -- Stationary point found.
 Normal termination of Gaussian 09 at Fri Jan 18 16:07:46 2013.
