 Gaussian 03, Revision E.01,

 ----------------------------------------------------------------------
 # b3lyp/LANL2DZ opt=(calcall,noeigentest,maxcycle=500) scfcyc=500 scf=
 xqc
 ----------------------------------------------------------------------

 -----
 si2-n
 -----
 Symbolic Z-matrix:
 Charge = -1 Multiplicity = 2

 SCF Done:  E(UB+HF-LYP) =  -7.68456498670     A.U. after    9 cycles
 SCF Done:  E(UB+HF-LYP) =  -7.69329019397     A.U. after   10 cycles
 SCF Done:  E(UB+HF-LYP) =  -7.69399238989     A.U. after    9 cycles
 Optimization completed.
    -- Stationary point found.
 Normal termination of Gaussian 03 at Wed Apr  6 16:48:31 2011.

 ----------------------------------------------------------------------
 # b3lyp/6-31G(d) opt=(readfc,noeigentest,maxcycle=500) freq scfcyc=500
  optcyc=500 geom=allcheck guess=read scf=xqc
 ----------------------------------------------------------------------

 si2-n
 -----
 Redundant internal coordinates taken from checkpoint file:
 S9L-ne-d-01.chk
 Charge = -1 Multiplicity = 2

 SCF Done:  E(UB+HF-LYP) =  -578.916493605     A.U. after   14 cycles
 SCF Done:  E(UB+HF-LYP) =  -578.921101496     A.U. after   11 cycles
 SCF Done:  E(UB+HF-LYP) =  -578.921118211     A.U. after    8 cycles
 Optimization completed.
 Normal termination of Gaussian 03 at Wed Apr  6 16:49:56 2011.

 ------------------------------------------------------------------
 #N Geom=AllCheck Guess=Read SCRF=Check GenChk UB3LYP/6-31G(d) Freq
 ------------------------------------------------------------------

 si2-n
 -----
 Redundant internal coordinates taken from checkpoint file:
 S9L-ne-d-01.chk
 Charge = -1 Multiplicity = 2

 SCF Done:  E(UB+HF-LYP) =  -578.921118211     A.U. after    1 cycles
 Normal termination of Gaussian 03 at Wed Apr  6 16:50:39 2011.

 ----------------------------------------------------------------------
 # b3lyp/6-311G(d) opt=(readfc,noeigentest,maxcycle=500) freq scfcyc=50
 0 optcyc=500 geom=allcheck guess=read scf=xqc
 ----------------------------------------------------------------------

 si2-n
 -----
 Redundant internal coordinates taken from checkpoint file:
 S9L-ne-d-01.chk
 Charge = -1 Multiplicity = 2

 SCF Done:  E(UB+HF-LYP) =  -578.969245088     A.U. after   10 cycles
 SCF Done:  E(UB+HF-LYP) =  -578.969248993     A.U. after    7 cycles
 Normal termination of Gaussian 03 at Wed Apr  6 16:51:40 2011.

 -------------------------------------------------------------------
 #N Geom=AllCheck Guess=Read SCRF=Check GenChk UB3LYP/6-311G(d) Freq
 -------------------------------------------------------------------

 si2-n
 -----
 Redundant internal coordinates taken from checkpoint file:
 S9L-ne-d-01.chk
 Charge = -1 Multiplicity = 2

 SCF Done:  E(UB+HF-LYP) =  -578.969248993     A.U. after    1 cycles
 Normal termination of Gaussian 03 at Wed Apr  6 16:52:25 2011.
 Gaussian 03:  AM64L-G03RevE.01 11-Sep-2007

 ----------------------------------------------------------------------
 # b3lyp/6-311+G(d) opt=(readfc,noeigentest,maxcycle=500) freq scfcyc=5
 00 optcyc=500 scf=xqc geom=allcheck guess=read
 ----------------------------------------------------------------------

 si2-n
 -----
 Redundant internal coordinates taken from checkpoint file:
 S9L-ne-d-01.chk
 Charge = -1 Multiplicity = 2

 SCF Done:  E(UB+HF-LYP) =  -578.974789440     A.U. after   10 cycles
 SCF Done:  E(UB+HF-LYP) =  -578.974790529     A.U. after    7 cycles
    -- Stationary point found.
 Normal termination of Gaussian 03 at Wed Apr  6 16:53:26 2011.

                         Standard orientation:
 ---------------------------------------------------------------------
 Center     Atomic     Atomic              Coordinates (Angstroms)
 Number     Number      Type              X           Y           Z
 ---------------------------------------------------------------------
    1         14             0        0.000000    0.000000    1.057081
    2         14             0        0.000000    0.000000   -1.057081
 ---------------------------------------------------------------------

 SCF Done:  E(UB+HF-LYP) =  -578.974790529     A.U. after    1 cycles

 The electronic state is 2-SGG.
 Alpha  occ. eigenvalues --  -65.90540 -65.90540  -5.07573  -5.07546  -3.43768
 Alpha  occ. eigenvalues --   -3.43574  -3.43235  -3.43235  -3.43216  -3.43216
 Alpha  occ. eigenvalues --   -0.32758  -0.16794  -0.04194  -0.01394  -0.01394
 Alpha virt. eigenvalues --    0.11617   0.11617   0.13339   0.14873   0.16493
 Alpha virt. eigenvalues --    0.16493   0.17759   0.19743   0.19743   0.22809
 Alpha virt. eigenvalues --    0.26863   0.38025   0.44093   0.44093   0.46897

  Beta  occ. eigenvalues --  -65.90329 -65.90329  -5.07366  -5.07343  -3.43120
  Beta  occ. eigenvalues --   -3.43120  -3.43102  -3.43102  -3.43026  -3.42840
  Beta  occ. eigenvalues --   -0.30293  -0.13871  -0.00911  -0.00911
  Beta virt. eigenvalues --    0.03876   0.12184   0.12184   0.13568   0.15569
  Beta virt. eigenvalues --    0.16523   0.16523   0.18008   0.19932   0.19932
  Beta virt. eigenvalues --    0.23331   0.27973   0.39543   0.44311   0.44311

 Mulliken atomic charges:
              1
     1  Si  -0.500000
     2  Si  -0.500000
 Sum of Mulliken charges=  -1.00000

 Dipole moment (field-independent basis, Debye):
    X=     0.0000    Y=     0.0000    Z=     0.0000  Tot=     0.0000
 Quadrupole moment (field-independent basis, Debye-Ang):
   XX=   -38.3166   YY=   -38.3166   ZZ=   -39.1308
   XY=     0.0000   XZ=     0.0000   YZ=     0.0000

  Exact polarizability: -58.202   0.000 -58.202   0.000   0.000 166.020
 Approx polarizability: 103.468   0.000 103.468   0.000   0.000 416.749

                     1
                    SGG
 Frequencies --   582.6388
 Red. masses --    27.9769
 Frc consts  --     5.5956
 IR Inten    --     0.0000

 - Thermochemistry -
 -------------------
 Temperature   298.150 Kelvin.  Pressure   1.00000 Atm.
 Atom  1 has atomic number 14 and mass  27.97693

 Molecular mass:    55.95386 amu.
 Principal axes and moments of inertia in atomic units:
                           1         2         3
     EIGENVALUES --     0.00000 223.27737 223.27737
           X            0.00000   0.70711   0.70711
           Y            0.00000   0.70711  -0.70711
           Z            1.00000   0.00000   0.00000
 This molecule is a prolate symmetric top.
 Rotational symmetry number  2.
 Rotational temperature (Kelvin)      0.38792
 Rotational constant (GHZ):           8.082956
 Zero-point vibrational energy       3485.0 (Joules/Mol)
                                    0.83292 (Kcal/Mol)
 Warning -- explicit consideration of   1 degrees of freedom as
           vibrations may cause significant error
 Vibrational temperatures:    838.29
          (Kelvin)

 Zero-point correction=                           0.001327 (Hartree/Particle)
 Thermal correction to Energy=                    0.003858
 Thermal correction to Enthalpy=                  0.004802
 Thermal correction to Gibbs Free Energy=        -0.020693
 Sum of electronic and zero-point Energies=           -578.973463
 Sum of electronic and thermal Energies=              -578.970933
 Sum of electronic and thermal Enthalpies=            -578.969989
 Sum of electronic and thermal Free Energies=         -578.995484

                     E (Thermal)             CV                S
                      KCal/Mol        Cal/Mol-Kelvin    Cal/Mol-Kelvin
 Total                    2.421              6.037             53.659
 Electronic               0.000              0.000              1.377
 Translational            0.889              2.981             37.987
 Rotational               0.592              1.987             13.814
 Vibrational              0.939              1.069              0.480
 Vibration  1             0.939              1.069              0.480

 Optimization completed.
    -- Stationary point found.
 Normal termination of Gaussian 03 at Wed Apr  6 16:54:12 2011.
