 Gaussian 03, Revision E.01,

 --------------------------------------
 # hf/6-311G(d) freq scfcyc=500 scf=xqc
 --------------------------------------

 -----
 si2-n
 -----
 Symbolic Z-matrix:
 Charge =  1 Multiplicity = 4

 SCF Done:  E(UHF) =  -577.481944515     A.U. after   12 cycles
 Normal termination of Gaussian 03 at Fri Jun 17 15:54:48 2011.
 Gaussian 03:  AM64L-G03RevE.01 11-Sep-2007

 ----------------------------------------------------------------------
 # b3lyp/6-311+G(d) opt=(readfc,noeigentest,maxcycle=500) freq scfcyc=5
 00 optcyc=500 scf=xqc geom=allcheck guess=read
 ----------------------------------------------------------------------

 -----
 No Z-matrix found on checkpoint file.
 Cartesian coordinates read from the checkpoint file:
 S9L-ne-d-01.chk
 Charge =  1 Multiplicity = 4

 SCF Done:  E(UB+HF-LYP) =  -578.596653556     A.U. after    9 cycles
 SCF Done:  E(UB+HF-LYP) =  -578.608134734     A.U. after    9 cycles
 SCF Done:  E(UB+HF-LYP) =  -578.609938563     A.U. after    9 cycles
 SCF Done:  E(UB+HF-LYP) =  -578.609943856     A.U. after    7 cycles
 Optimization completed.
    -- Stationary point found.
 Normal termination of Gaussian 03 at Fri Jun 17 15:56:39 2011.

 --------------------------------------------------------------------
 #N Geom=AllCheck Guess=Read SCRF=Check GenChk UB3LYP/6-311+G(d) Freq
 --------------------------------------------------------------------

 si2-n
 -----
 Redundant internal coordinates taken from checkpoint file:
 S9L-ne-d-01.chk
 Charge =  1 Multiplicity = 4

                         Standard orientation:
 ---------------------------------------------------------------------
 Center     Atomic     Atomic              Coordinates (Angstroms)
 Number     Number      Type              X           Y           Z
 ---------------------------------------------------------------------
    1         14             0        0.000000    0.000000    1.151278
    2         14             0        0.000000    0.000000   -1.151278
 ---------------------------------------------------------------------

 SCF Done:  E(UB+HF-LYP) =  -578.609943856     A.U. after    1 cycles

 The electronic state is 4-SGG.
 Alpha  occ. eigenvalues --  -66.40065 -66.40065  -5.56554  -5.56548  -3.92493
 Alpha  occ. eigenvalues --   -3.92493  -3.92486  -3.92486  -3.92409  -3.92333
 Alpha  occ. eigenvalues --   -0.79437  -0.63525  -0.47962  -0.46065  -0.46065
 Alpha virt. eigenvalues --   -0.31989  -0.31989  -0.19471  -0.15276  -0.09413
 Alpha virt. eigenvalues --   -0.09413  -0.09035  -0.08731  -0.05581  -0.05581
 Alpha virt. eigenvalues --   -0.01879   0.05428   0.10174   0.10174   0.11508

  Beta  occ. eigenvalues --  -66.39468 -66.39467  -5.55949  -5.55948  -3.91628
  Beta  occ. eigenvalues --   -3.91628  -3.91622  -3.91622  -3.91429  -3.91358
  Beta  occ. eigenvalues --   -0.72695  -0.57258
  Beta virt. eigenvalues --   -0.37577  -0.36434  -0.36434  -0.26798  -0.26798
  Beta virt. eigenvalues --   -0.15685  -0.14119  -0.08830  -0.08830  -0.07985
  Beta virt. eigenvalues --   -0.07902  -0.05162  -0.05162  -0.01490   0.07297

 Mulliken atomic charges:
              1
     1  Si   0.500000
     2  Si   0.500000
 Sum of Mulliken charges=   1.00000

 Dipole moment (field-independent basis, Debye):
    X=     0.0000    Y=     0.0000    Z=     0.0000  Tot=     0.0000
 Quadrupole moment (field-independent basis, Debye-Ang):
   XX=   -21.2888   YY=   -21.2888   ZZ=   -13.2940
   XY=     0.0000   XZ=     0.0000   YZ=     0.0000

  Exact polarizability:  29.678   0.000  29.678   0.000   0.000  87.949
 Approx polarizability:  43.723   0.000  43.723   0.000   0.000 228.922

                     1
                    SGG
 Frequencies --   434.2650
 Red. masses --    27.9769
 Frc consts  --     3.1086
 IR Inten    --     0.0000

 - Thermochemistry -
 -------------------
 Temperature   298.150 Kelvin.  Pressure   1.00000 Atm.
 Atom  1 has atomic number 14 and mass  27.97693

 Molecular mass:    55.95386 amu.
 Principal axes and moments of inertia in atomic units:
                           1         2         3
     EIGENVALUES --     0.00000 264.84302 264.84302
           X            0.00000   1.00000   0.00000
           Y            0.00000   0.00000   1.00000
           Z            1.00000   0.00000   0.00000
 This molecule is a prolate symmetric top.
 Rotational symmetry number  2.
 Rotational temperature (Kelvin)      0.32704
 Rotational constant (GHZ):           6.814381
 Zero-point vibrational energy       2597.5 (Joules/Mol)
                                    0.62081 (Kcal/Mol)
 Warning -- explicit consideration of   1 degrees of freedom as
           vibrations may cause significant error
 Vibrational temperatures:    624.81
          (Kelvin)

 Zero-point correction=                           0.000989 (Hartree/Particle)
 Thermal correction to Energy=                    0.003627
 Thermal correction to Enthalpy=                  0.004571
 Thermal correction to Gibbs Free Energy=        -0.021912
 Sum of electronic and zero-point Energies=           -578.608955
 Sum of electronic and thermal Energies=              -578.606317
 Sum of electronic and thermal Enthalpies=            -578.605372
 Sum of electronic and thermal Free Energies=         -578.631856

                     E (Thermal)             CV                S
                      KCal/Mol        Cal/Mol-Kelvin    Cal/Mol-Kelvin
 Total                    2.276              6.364             55.740
 Electronic               0.000              0.000              2.755
 Translational            0.889              2.981             37.987
 Rotational               0.592              1.987             14.153
 Vibrational              0.795              1.396              0.845
 Vibration  1             0.795              1.396              0.845

 Optimization completed.
    -- Stationary point found.
 Normal termination of Gaussian 03 at Fri Jun 17 15:57:24 2011.
