 Gaussian 03, Revision E.01,

 --------------------------------------
 # hf/6-311G(d) freq scfcyc=500 scf=xqc
 --------------------------------------

 -----
 si3-c
 -----
 Symbolic Z-matrix:
 Charge =  1 Multiplicity = 2

 SCF Done:  E(UHF) =  -866.382796811     A.U. after  129 cycles
 SCF Done:  E(UHF) =  -866.394253670     a.u. after   18 cycles
 Normal termination of Gaussian 03 at Fri Jun 17 16:04:04 2011.
 Gaussian 03:  AM64L-G03RevE.01 11-Sep-2007

 ----------------------------------------------------------------------
 # b3lyp/6-311+G(d) opt=(readfc,noeigentest,maxcycle=500) freq scfcyc=5
 00 optcyc=500 scf=xqc geom=allcheck guess=read
 ----------------------------------------------------------------------

 -----
 No Z-matrix found on checkpoint file.
 Cartesian coordinates read from the checkpoint file:
 S9L-ne-d-01.chk
 Charge =  1 Multiplicity = 2

 SCF Done:  E(UB+HF-LYP) =  -868.126628284     A.U. after   15 cycles
 SCF Done:  E(UB+HF-LYP) =  -868.129909744     A.U. after   17 cycles
 SCF Done:  E(UB+HF-LYP) =  -868.131269181     A.U. after   14 cycles
 SCF Done:  E(UB+HF-LYP) =  -868.131296106     A.U. after   12 cycles
 SCF Done:  E(UB+HF-LYP) =  -868.131301108     A.U. after   12 cycles
 Optimization completed.
    -- Stationary point found.
 Normal termination of Gaussian 03 at Fri Jun 17 16:06:28 2011.

 --------------------------------------------------------------------
 #N Geom=AllCheck Guess=Read SCRF=Check GenChk UB3LYP/6-311+G(d) Freq
 --------------------------------------------------------------------

 si3-c
 -----
 Redundant internal coordinates taken from checkpoint file:
 S9L-ne-d-01.chk
 Charge =  1 Multiplicity = 2

                         Standard orientation:
 ---------------------------------------------------------------------
 Center     Atomic     Atomic              Coordinates (Angstroms)
 Number     Number      Type              X           Y           Z
 ---------------------------------------------------------------------
    1         14             0        0.000000    1.262207   -0.617271
    2         14             0        0.000000   -1.262207   -0.617271
    3         14             0        0.000000    0.000000    1.234542
 ---------------------------------------------------------------------

 SCF Done:  E(UB+HF-LYP) =  -868.131301108     A.U. after    1 cycles

 The electronic state is 2-B2.
 Alpha  occ. eigenvalues --  -66.36651 -66.36651 -66.35206  -5.53284  -5.53283
 Alpha  occ. eigenvalues --   -5.52183  -3.89297  -3.89295  -3.89043  -3.89041
 Alpha  occ. eigenvalues --   -3.88820  -3.88794  -3.88129  -3.88081  -3.87849
 Alpha  occ. eigenvalues --   -0.81820  -0.63383  -0.60774  -0.46065  -0.45502
 Alpha  occ. eigenvalues --   -0.45066
 Alpha virt. eigenvalues --   -0.36583  -0.29414  -0.27540  -0.20581  -0.18594
 Alpha virt. eigenvalues --   -0.16245  -0.13860  -0.09401  -0.09079  -0.07323
 Alpha virt. eigenvalues --   -0.07270  -0.06953  -0.06563  -0.05317  -0.05026

  Beta  occ. eigenvalues --  -66.36579 -66.36579 -66.34833  -5.53207  -5.53207
  Beta  occ. eigenvalues --   -5.51803  -3.89252  -3.89235  -3.89020  -3.89017
  Beta  occ. eigenvalues --   -3.88586  -3.88574  -3.87589  -3.87462  -3.87341
  Beta  occ. eigenvalues --   -0.80365  -0.62340  -0.57671  -0.45113  -0.45055
  Beta virt. eigenvalues --   -0.36674  -0.35793  -0.29366  -0.26422  -0.21244
  Beta virt. eigenvalues --   -0.16049  -0.15270  -0.13572  -0.09381  -0.08932
  Beta virt. eigenvalues --   -0.07068  -0.06820  -0.06619  -0.06176  -0.05315

 Mulliken atomic charges:
              1
     1  Si   0.348205
     2  Si   0.348205
     3  Si   0.303590
 Sum of Mulliken charges=   1.00000

 Dipole moment (field-independent basis, Debye):
    X=     0.0000    Y=     0.0000    Z=    -0.0243  Tot=     0.0243
 Quadrupole moment (field-independent basis, Debye-Ang):
   XX=   -34.8871   YY=   -27.2144   ZZ=   -27.0976
   XY=     0.0000   XZ=     0.0000   YZ=     0.0000

  Exact polarizability:  50.455   0.000 102.787   0.000   0.000  86.175
 Approx polarizability:  78.750   0.000 246.232   0.000   0.000 223.954

                     1                      2                      3
                    A1                     B2                     A1
 Frequencies --   186.4434               253.6254               464.7794
 Red. masses --    27.9769                27.9769                27.9769
 Frc consts  --     0.5730                 1.0603                 3.5608
 IR Inten    --    10.6122                 0.4168                 2.0968

 - Thermochemistry -
 -------------------
 Temperature   298.150 Kelvin.  Pressure   1.00000 Atm.
 Atom  1 has atomic number 14 and mass  27.97693

 Molecular mass:    83.93079 amu.
 Principal axes and moments of inertia in atomic units:
                           1         2         3
     EIGENVALUES --   228.40228 318.33852 546.74080
           X            0.00000   0.00000   1.00000
           Y            1.00000   0.00000   0.00000
           Z            0.00000   1.00000   0.00000
 This molecule is an asymmetric top.
 Rotational symmetry number  2.
 Rotational temperatures (Kelvin)      0.37922     0.27208     0.15842
 Rotational constants (GHZ):           7.90159     5.66925     3.30091
 Zero-point vibrational energy       5412.2 (Joules/Mol)
                                    1.29355 (Kcal/Mol)
 Warning -- explicit consideration of   3 degrees of freedom as
           vibrations may cause significant error
 Vibrational temperatures:    268.25   364.91   668.71
          (Kelvin)

 Zero-point correction=                           0.002061 (Hartree/Particle)
 Thermal correction to Energy=                    0.006209
 Thermal correction to Enthalpy=                  0.007153
 Thermal correction to Gibbs Free Energy=        -0.025681
 Sum of electronic and zero-point Energies=           -868.129240
 Sum of electronic and thermal Energies=              -868.125092
 Sum of electronic and thermal Enthalpies=            -868.124148
 Sum of electronic and thermal Free Energies=         -868.156982

                     E (Thermal)             CV                S
                      KCal/Mol        Cal/Mol-Kelvin    Cal/Mol-Kelvin
 Total                    3.896             10.905             69.106
 Electronic               0.000              0.000              1.377
 Translational            0.889              2.981             39.196
 Rotational               0.889              2.981             23.812
 Vibrational              2.119              4.943              4.720
 Vibration  1             0.632              1.858              2.263
 Vibration  2             0.665              1.757              1.705
 Vibration  3             0.822              1.328              0.752

 Optimization completed.
    -- Stationary point found.
 Normal termination of Gaussian 03 at Fri Jun 17 16:07:24 2011.
