 Gaussian 03, Revision E.01,

 ----------------------------------------------------------------------
 # b3lyp/LANL2DZ opt=(calcall,noeigentest,maxcycle=500) scfcyc=500 scf=
 xqc
 ----------------------------------------------------------------------

 -----
 si3-n
 -----
 Symbolic Z-matrix:
 Charge =  0 Multiplicity = 1

 SCF Done:  E(RB+HF-LYP) =  -11.4980387779     A.U. after   16 cycles
 SCF Done:  E(RB+HF-LYP) =  -11.5069619422     A.U. after   15 cycles
 SCF Done:  E(RB+HF-LYP) =  -11.5081961294     A.U. after   15 cycles
 SCF Done:  E(RB+HF-LYP) =  -11.5083380816     A.U. after   13 cycles
 SCF Done:  E(RB+HF-LYP) =  -11.5083398726     A.U. after    9 cycles
 Optimization completed.
    -- Stationary point found.
 Normal termination of Gaussian 03 at Mon Apr  4 15:55:37 2011.

 ----------------------------------------------------------------------
 # b3lyp/6-311G(d) opt=(readfc,noeigentest,maxcycle=500) freq scfcyc=50
 0 optcyc=500 geom=allcheck guess=read scf=xqc
 ----------------------------------------------------------------------

 si3-n
 -----
 Redundant internal coordinates taken from checkpoint file:
 S9L-ne-d-01.chk
 Charge =  0 Multiplicity = 1

 SCF Done:  E(RB+HF-LYP) =  -868.421742957     A.U. after   19 cycles
 SCF Done:  E(RB+HF-LYP) =  -868.426392863     A.U. after   14 cycles
 SCF Done:  E(RB+HF-LYP) =  -868.426496971     A.U. after   12 cycles
 SCF Done:  E(RB+HF-LYP) =  -868.426498127     A.U. after   13 cycles
 SCF Done:  E(RB+HF-LYP) =  -868.426502042     A.U. after   10 cycles
 Optimization completed.
 Normal termination of Gaussian 03 at Mon Apr  4 15:57:55 2011.

 -------------------------------------------------------------------
 #N Geom=AllCheck Guess=Read SCRF=Check GenChk RB3LYP/6-311G(d) Freq
 -------------------------------------------------------------------

 si3-n
 -----
 Redundant internal coordinates taken from checkpoint file:
 S9L-ne-d-01.chk
 Charge =  0 Multiplicity = 1

 SCF Done:  E(RB+HF-LYP) =  -868.426502042     A.U. after    1 cycles
 Normal termination of Gaussian 03 at Mon Apr  4 15:58:45 2011.
 Gaussian 03:  AM64L-G03RevE.01 11-Sep-2007

 ----------------------------------------------------------------------
 # b3lyp/6-311+G(d) opt=(readfc,noeigentest,maxcycle=500) freq scfcyc=5
 00 optcyc=500 scf=xqc geom=allcheck guess=read
 ----------------------------------------------------------------------

 si3-n
 -----
 Redundant internal coordinates taken from checkpoint file:
 S9L-ne-d-01.chk
 Charge =  0 Multiplicity = 1

 SCF Done:  E(RB+HF-LYP) =  -868.428870373     A.U. after   10 cycles
 SCF Done:  E(RB+HF-LYP) =  -868.428891916     A.U. after   10 cycles
 SCF Done:  E(RB+HF-LYP) =  -868.428891976     A.U. after   14 cycles
    -- Stationary point found.
 Normal termination of Gaussian 03 at Mon Apr  4 16:00:16 2011.

 --------------------------------------------------------------------
 #N Geom=AllCheck Guess=Read SCRF=Check GenChk RB3LYP/6-311+G(d) Freq
 --------------------------------------------------------------------

 si3-n
 -----
 Redundant internal coordinates taken from checkpoint file:
 S9L-ne-d-01.chk
 Charge =  0 Multiplicity = 1

                         Standard orientation:
 ---------------------------------------------------------------------
 Center     Atomic     Atomic              Coordinates (Angstroms)
 Number     Number      Type              X           Y           Z
 ---------------------------------------------------------------------
    1         14             0        0.000000    1.438106   -0.548486
    2         14             0        0.000000   -1.438106   -0.548486
    3         14             0        0.000000    0.000000    1.096973
 ---------------------------------------------------------------------

 SCF Done:  E(RB+HF-LYP) =  -868.428891982     A.U. after    1 cycles

 The electronic state is 1-A1.
 Alpha  occ. eigenvalues --  -66.13426 -66.13426 -66.09493  -5.30219  -5.30217
 Alpha  occ. eigenvalues --   -5.26964  -3.66164  -3.66162  -3.66106  -3.66106
 Alpha  occ. eigenvalues --   -3.65617  -3.65614  -3.62842  -3.62794  -3.62470
 Alpha  occ. eigenvalues --   -0.57592  -0.43420  -0.35674  -0.24258  -0.23985
 Alpha  occ. eigenvalues --   -0.22674
 Alpha virt. eigenvalues --   -0.13917  -0.10891  -0.05792  -0.05610   0.00928
 Alpha virt. eigenvalues --    0.01551   0.01685   0.03514   0.04175   0.05100
 Alpha virt. eigenvalues --    0.05856   0.06424   0.06481   0.07381   0.07999

 Mulliken atomic charges:
              1
     1  Si   0.035615
     2  Si   0.035615
     3  Si  -0.071230
 Sum of Mulliken charges=   0.00000

 Dipole moment (field-independent basis, Debye):
    X=     0.0000    Y=     0.0000    Z=     0.1177  Tot=     0.1177
 Quadrupole moment (field-independent basis, Debye-Ang):
   XX=   -40.1780   YY=   -42.7263   ZZ=   -39.8922
   XY=     0.0000   XZ=     0.0000   YZ=     0.0000

  Exact polarizability:  66.645   0.000 141.659   0.000   0.000 103.901
 Approx polarizability: 103.637   0.000 361.121   0.000   0.000 251.895

                     1                      2                      3
                    A1                     A1                     B2
 Frequencies --   165.5488               536.4733               537.0612
 Red. masses --    27.9769                27.9769                27.9769
 Frc consts  --     0.4518                 4.7440                 4.7544
 IR Inten    --     5.3480                 8.8442                43.8250

 - Thermochemistry -
 -------------------
 Temperature   298.150 Kelvin.  Pressure   1.00000 Atm.
 Atom  1 has atomic number 14 and mass  27.97693

 Molecular mass:    83.93079 amu.
 Principal axes and moments of inertia in atomic units:
                           1         2         3
     EIGENVALUES --   180.33532 413.24697 593.58228
           X            0.00000   0.00000   1.00000
           Y            1.00000   0.00000   0.00000
           Z            0.00000   1.00000   0.00000
 This molecule is an asymmetric top.
 Rotational symmetry number  2.
 Rotational temperatures (Kelvin)      0.48029     0.20959     0.14592
 Rotational constants (GHZ):          10.00770     4.36722     3.04042
 Zero-point vibrational energy       7411.4 (Joules/Mol)
                                    1.77136 (Kcal/Mol)
 Warning -- explicit consideration of   3 degrees of freedom as
           vibrations may cause significant error
 Vibrational temperatures:    238.19   771.86   772.71
          (Kelvin)

 Zero-point correction=                           0.002823 (Hartree/Particle)
 Thermal correction to Energy=                    0.006669
 Thermal correction to Enthalpy=                  0.007613
 Thermal correction to Gibbs Free Energy=        -0.024099
 Sum of electronic and zero-point Energies=           -868.426069
 Sum of electronic and thermal Energies=              -868.422223
 Sum of electronic and thermal Enthalpies=            -868.421279
 Sum of electronic and thermal Free Energies=         -868.452991

                     E (Thermal)             CV                S
                      KCal/Mol        Cal/Mol-Kelvin    Cal/Mol-Kelvin
 Total                    4.185             10.184             66.744
 Electronic               0.000              0.000              0.000
 Translational            0.889              2.981             39.196
 Rotational               0.889              2.981             23.918
 Vibrational              2.407              4.222              3.630
 Vibration  1             0.624              1.885              2.485
 Vibration  2             0.891              1.169              0.573
 Vibration  3             0.892              1.168              0.572

 Optimization completed.
    -- Stationary point found.
 Normal termination of Gaussian 03 at Mon Apr  4 16:01:06 2011.
