 Gaussian 03, Revision E.01,

 -----------------------------------------
 # b3lyp/6-311G(d) freq scfcyc=500 scf=xqc
 -----------------------------------------

 -----
 si3-n
 -----
 Symbolic Z-matrix:
 Charge =  0 Multiplicity = 3

 SCF Done:  E(UB+HF-LYP) =  -868.426485469     A.U. after   13 cycles
 Optimization completed.
    -- Stationary point found.
 Normal termination of Gaussian 03 at Fri Nov 18 16:01:21 2011.
 Gaussian 03:  AM64L-G03RevE.01 11-Sep-2007

 ----------------------------------------------------------------------
 # b3lyp/6-311+G(d) opt=(readfc,noeigentest,maxcycle=500) freq scfcyc=5
 00 optcyc=500 scf=xqc geom=allcheck guess=read
 ----------------------------------------------------------------------

 -----
 No Z-matrix found on checkpoint file.
 Cartesian coordinates read from the checkpoint file:
 S9L-ne-d-01.chk
 Charge =  0 Multiplicity = 3

 SCF Done:  E(UB+HF-LYP) =  -868.429419999     A.U. after   15 cycles
 Optimization completed.
    -- Stationary point found.
 Normal termination of Gaussian 03 at Fri Nov 18 16:02:27 2011.

 --------------------------------------------------------------------
 #N Geom=AllCheck Guess=Read SCRF=Check GenChk UB3LYP/6-311+G(d) Freq
 --------------------------------------------------------------------

 si3-n
 -----
 Redundant internal coordinates taken from checkpoint file:
 S9L-ne-d-01.chk
 Charge =  0 Multiplicity = 3

                         Standard orientation:
 ---------------------------------------------------------------------
 Center     Atomic     Atomic              Coordinates (Angstroms)
 Number     Number      Type              X           Y           Z
 ---------------------------------------------------------------------
    1         14             0        0.000000    1.325075    0.000000
    2         14             0        1.147549   -0.662538    0.000000
    3         14             0       -1.147549   -0.662537    0.000000
 ---------------------------------------------------------------------

 SCF Done:  E(UB+HF-LYP) =  -868.429419999     A.U. after    1 cycles

 The electronic state is 3-A1'.
 Alpha  occ. eigenvalues --  -66.12623 -66.12623 -66.12622  -5.29625  -5.29613
 Alpha  occ. eigenvalues --   -5.29613  -3.65637  -3.65637  -3.65599  -3.65440
 Alpha  occ. eigenvalues --   -3.65429  -3.65429  -3.65298  -3.65206  -3.65206
 Alpha  occ. eigenvalues --   -0.60833  -0.41530  -0.41530  -0.25869  -0.25481
 Alpha  occ. eigenvalues --   -0.22964  -0.22964
 Alpha virt. eigenvalues --   -0.08773  -0.08773  -0.01033  -0.00728  -0.00728
 Alpha virt. eigenvalues --    0.01340   0.03260   0.03851   0.05221   0.05221
 Alpha virt. eigenvalues --    0.06909   0.06909   0.07751   0.07751   0.10096

  Beta  occ. eigenvalues --  -66.12330 -66.12330 -66.12330  -5.29323  -5.29313
  Beta  occ. eigenvalues --   -5.29313  -3.65269  -3.65259  -3.65259  -3.64922
  Beta  occ. eigenvalues --   -3.64922  -3.64899  -3.64881  -3.64803  -3.64803
  Beta  occ. eigenvalues --   -0.58515  -0.37749  -0.37749  -0.24725  -0.23061
  Beta virt. eigenvalues --   -0.15107  -0.15107  -0.07831  -0.07831   0.00004
  Beta virt. eigenvalues --    0.00004   0.01800   0.02156   0.03292   0.03987
  Beta virt. eigenvalues --    0.05607   0.05607   0.07008   0.07008   0.08925

 Mulliken atomic charges:
              1
     1  Si   0.000000
     2  Si   0.000000
     3  Si   0.000000
 Sum of Mulliken charges=   0.00000

 Dipole moment (field-independent basis, Debye):
    X=     0.0000    Y=     0.0000    Z=     0.0000  Tot=     0.0000
 Quadrupole moment (field-independent basis, Debye-Ang):
   XX=   -41.4184   YY=   -41.4184   ZZ=   -39.8572
   XY=     0.0000   XZ=     0.0000   YZ=     0.0000

  Exact polarizability: 117.265   0.000 117.271   0.000   0.000  60.607
 Approx polarizability: 266.502   0.000 266.502   0.000   0.000  96.691

                     1                      2                      3
                    E'                     E'                     A1'
 Frequencies --   311.7738               311.7738               489.2120
 Red. masses --    27.9769                27.9769                27.9769
 Frc consts  --     1.6022                 1.6022                 3.9450
 IR Inten    --     0.4269                 0.4262                 0.0000

 - Thermochemistry -
 -------------------
 Temperature   298.150 Kelvin.  Pressure   1.00000 Atm.
 Atom  1 has atomic number 14 and mass  27.97693

 Molecular mass:    83.93079 amu.
 Principal axes and moments of inertia in atomic units:
                           1         2         3
     EIGENVALUES --   263.12975 263.12975 526.25950
           X           -0.60220   0.79835   0.00000
           Y            0.79835   0.60220   0.00000
           Z            0.00000   0.00000   1.00000
 This molecule is an oblate symmetric top.
 Rotational symmetry number  6.
 Rotational temperatures (Kelvin)      0.32917     0.32917     0.16458
 Rotational constants (GHZ):           6.85875     6.85875     3.42938
 Zero-point vibrational energy       6655.8 (Joules/Mol)
                                    1.59077 (Kcal/Mol)
 Warning -- explicit consideration of   3 degrees of freedom as
           vibrations may cause significant error
 Vibrational temperatures:    448.57   448.57   703.87
          (Kelvin)

 Zero-point correction=                           0.002535 (Hartree/Particle)
 Thermal correction to Energy=                    0.006411
 Thermal correction to Enthalpy=                  0.007355
 Thermal correction to Gibbs Free Energy=        -0.024152
 Sum of electronic and zero-point Energies=           -868.426885
 Sum of electronic and thermal Energies=              -868.423009
 Sum of electronic and thermal Enthalpies=            -868.422065
 Sum of electronic and thermal Free Energies=         -868.453572

                     E (Thermal)             CV                S
                      KCal/Mol        Cal/Mol-Kelvin    Cal/Mol-Kelvin
 Total                    4.023             10.538             66.313
 Electronic               0.000              0.000              2.183
 Translational            0.889              2.981             39.196
 Rotational               0.889              2.981             21.542
 Vibrational              2.246              4.576              3.391
 Vibration  1             0.700              1.651              1.353
 Vibration  2             0.700              1.651              1.353
 Vibration  3             0.845              1.274              0.686

 Optimization completed.
    -- Stationary point found.
 Normal termination of Gaussian 03 at Fri Nov 18 16:03:46 2011.
