 Gaussian 03, Revision E.01,

 ----------------------------------------------------------------------
 # b3lyp/LANL2DZ opt=(calcall,noeigentest,maxcycle=500) scfcyc=500 scf=
 xqc
 ----------------------------------------------------------------------

 -----
 si3-n
 -----
 Symbolic Z-matrix:
 Charge = -1 Multiplicity = 2

 SCF Done:  E(UB+HF-LYP) =  -11.5785783189     A.U. after   16 cycles
 SCF Done:  E(UB+HF-LYP) =  -11.5831725162     A.U. after   17 cycles
 SCF Done:  E(UB+HF-LYP) =  -11.5835596492     A.U. after   15 cycles
 SCF Done:  E(UB+HF-LYP) =  -11.5835599463     A.U. after   10 cycles
 Optimization completed.
    -- Stationary point found.
 Normal termination of Gaussian 03 at Wed Apr  6 16:49:03 2011.

 ----------------------------------------------------------------------
 # b3lyp/6-311G(d) opt=(readfc,noeigentest,maxcycle=500) freq scfcyc=50
 0 optcyc=500 geom=allcheck guess=read scf=xqc
 ----------------------------------------------------------------------

 si3-n
 -----
 Redundant internal coordinates taken from checkpoint file:
 S9L-ne-d-01.chk
 Charge = -1 Multiplicity = 2

 SCF Done:  E(UB+HF-LYP) =  -868.503465171     A.U. after   20 cycles
 SCF Done:  E(UB+HF-LYP) =  -868.506323436     A.U. after   16 cycles
 SCF Done:  E(UB+HF-LYP) =  -868.506355224     A.U. after   12 cycles
 Optimization completed.
 Normal termination of Gaussian 03 at Wed Apr  6 16:50:32 2011.

 -------------------------------------------------------------------
 #N Geom=AllCheck Guess=Read SCRF=Check GenChk UB3LYP/6-311G(d) Freq
 -------------------------------------------------------------------

 si3-n
 -----
 Redundant internal coordinates taken from checkpoint file:
 S9L-ne-d-01.chk
 Charge = -1 Multiplicity = 2

 SCF Done:  E(UB+HF-LYP) =  -868.506355224     A.U. after    1 cycles
 Normal termination of Gaussian 03 at Wed Apr  6 16:51:21 2011.
 Gaussian 03:  AM64L-G03RevE.01 11-Sep-2007

 ----------------------------------------------------------------------
 # b3lyp/6-311+G(d) opt=(readfc,noeigentest,maxcycle=500) freq scfcyc=5
 00 optcyc=500 scf=xqc geom=allcheck guess=read
 ----------------------------------------------------------------------

 si3-n
 -----
 Redundant internal coordinates taken from checkpoint file:
 S9L-ne-d-01.chk
 Charge = -1 Multiplicity = 2

 SCF Done:  E(UB+HF-LYP) =  -868.513835238     A.U. after   13 cycles
 SCF Done:  E(UB+HF-LYP) =  -868.513840017     A.U. after   11 cycles
    -- Stationary point found.
 Normal termination of Gaussian 03 at Wed Apr  6 16:52:26 2011.

 --------------------------------------------------------------------
 #N Geom=AllCheck Guess=Read SCRF=Check GenChk UB3LYP/6-311+G(d) Freq
 --------------------------------------------------------------------

 si3-n
 -----
 Redundant internal coordinates taken from checkpoint file:
 S9L-ne-d-01.chk
 Charge = -1 Multiplicity = 2

                         Standard orientation:
 ---------------------------------------------------------------------
 Center     Atomic     Atomic              Coordinates (Angstroms)
 Number     Number      Type              X           Y           Z
 ---------------------------------------------------------------------
    1         14             0        0.000000    1.227029   -0.633904
    2         14             0        0.000000   -1.227029   -0.633904
    3         14             0        0.000000    0.000000    1.267807
 ---------------------------------------------------------------------

 SCF Done:  E(UB+HF-LYP) =  -868.513840017     A.U. after    1 cycles

 The electronic state is 2-A1.
 Alpha  occ. eigenvalues --  -65.92284 -65.92284 -65.90504  -5.09253  -5.09252
 Alpha  occ. eigenvalues --   -5.07723  -3.45233  -3.45213  -3.45205  -3.45202
 Alpha  occ. eigenvalues --   -3.44714  -3.44694  -3.43700  -3.43559  -3.43225
 Alpha  occ. eigenvalues --   -0.39401  -0.21963  -0.19852  -0.06266  -0.06117
 Alpha  occ. eigenvalues --   -0.02734  -0.02505
 Alpha virt. eigenvalues --    0.08412   0.09791   0.12055   0.12519   0.14008
 Alpha virt. eigenvalues --    0.15238   0.15968   0.16773   0.16876   0.17440
 Alpha virt. eigenvalues --    0.18380   0.18848   0.21437   0.23302   0.23312

  Beta  occ. eigenvalues --  -65.92139 -65.92139 -65.90408  -5.09107  -5.09107
  Beta  occ. eigenvalues --   -5.07619  -3.45119  -3.45116  -3.44780  -3.44749
  Beta  occ. eigenvalues --   -3.44600  -3.44592  -3.43649  -3.43224  -3.43205
  Beta  occ. eigenvalues --   -0.38367  -0.20416  -0.17954  -0.05777  -0.04991
  Beta  occ. eigenvalues --   -0.01999
  Beta virt. eigenvalues --    0.04125   0.08801   0.10163   0.12232   0.12657
  Beta virt. eigenvalues --    0.14176   0.15248   0.16645   0.17005   0.17308
  Beta virt. eigenvalues --    0.17557   0.18462   0.18952   0.22456   0.23451

 Mulliken atomic charges:
              1
     1  Si  -0.318633
     2  Si  -0.318633
     3  Si  -0.362734
 Sum of Mulliken charges=  -1.00000

 Dipole moment (field-independent basis, Debye):
    X=     0.0000    Y=     0.0000    Z=     0.4440  Tot=     0.4440
 Quadrupole moment (field-independent basis, Debye-Ang):
   XX=   -46.9369   YY=   -59.5371   ZZ=   -58.4834
   XY=     0.0000   XZ=     0.0000   YZ=     0.0000

  Exact polarizability:  85.350   0.000 181.478   0.000   0.000 172.760
 Approx polarizability: 130.100   0.000 339.855   0.000   0.000 336.682

                     1                      2                      3
                    A1                     B2                     A1
 Frequencies --   281.0976               311.7915               507.0254
 Red. masses --    27.9769                27.9769                27.9769
 Frc consts  --     1.3025                 1.6024                 4.2375
 IR Inten    --     0.0141                 1.0014                 3.6865

 - Thermochemistry -
 -------------------
 Temperature   298.150 Kelvin.  Pressure   1.00000 Atm.
 Atom  1 has atomic number 14 and mass  27.97693

 Molecular mass:    83.93079 amu.
 Principal axes and moments of inertia in atomic units:
                           1         2         3
     EIGENVALUES --   240.87717 300.84147 541.71864
           X            0.00000   0.00000   1.00000
           Y            1.00000   0.00000   0.00000
           Z            0.00000   1.00000   0.00000
 This molecule is an asymmetric top.
 Rotational symmetry number  2.
 Rotational temperatures (Kelvin)      0.35958     0.28791     0.15989
 Rotational constants (GHZ):           7.49237     5.99898     3.33151
 Zero-point vibrational energy       6579.0 (Joules/Mol)
                                    1.57241 (Kcal/Mol)
 Warning -- explicit consideration of   3 degrees of freedom as
           vibrations may cause significant error
 Vibrational temperatures:    404.44   448.60   729.50
          (Kelvin)

 Zero-point correction=                           0.002506 (Hartree/Particle)
 Thermal correction to Energy=                    0.006407
 Thermal correction to Enthalpy=                  0.007351
 Thermal correction to Gibbs Free Energy=        -0.024907
 Sum of electronic and zero-point Energies=           -868.511334
 Sum of electronic and thermal Energies=              -868.507433
 Sum of electronic and thermal Enthalpies=            -868.506489
 Sum of electronic and thermal Free Energies=         -868.538747

                     E (Thermal)             CV                S
                      KCal/Mol        Cal/Mol-Kelvin    Cal/Mol-Kelvin
 Total                    4.021             10.556             67.893
 Electronic               0.000              0.000              1.377
 Translational            0.889              2.981             39.196
 Rotational               0.889              2.981             23.799
 Vibrational              2.243              4.594              3.521
 Vibration  1             0.681              1.709              1.527
 Vibration  2             0.700              1.651              1.353
 Vibration  3             0.862              1.234              0.641

 Optimization completed.
    -- Stationary point found.
 Normal termination of Gaussian 03 at Wed Apr  6 16:53:20 2011.
