 Gaussian 03, Revision E.01,

 ----------------------------------------------------------------------
 # b3lyp/LANL2DZ opt=(calcall,noeigentest,maxcycle=500) scfcyc=500 scf=
 xqc
 ----------------------------------------------------------------------

 -----
 si5-n
 -----
 Symbolic Z-matrix:
 Charge = -1 Multiplicity = 2

 SCF Done:  E(UB+HF-LYP) =  -19.3366364633     A.U. after   19 cycles
 SCF Done:  E(UB+HF-LYP) =  -19.3456536456     A.U. after   18 cycles
 SCF Done:  E(UB+HF-LYP) =  -19.3523143326     A.U. after   20 cycles
 SCF Done:  E(UB+HF-LYP) =  -19.3534482579     A.U. after   19 cycles
 SCF Done:  E(UB+HF-LYP) =  -19.3534524670     A.U. after   17 cycles
 Optimization completed.
    -- Stationary point found.
 Normal termination of Gaussian 03 at Wed Apr  6 16:50:35 2011.

 ----------------------------------------------------------------------
 # b3lyp/6-31G(d) opt=(readfc,noeigentest,maxcycle=500) freq scfcyc=500
  optcyc=500 geom=allcheck guess=read scf=xqc
 ----------------------------------------------------------------------

 si5-n
 -----
 Redundant internal coordinates taken from checkpoint file:
 S9L-ne-d-01.chk
 Charge = -1 Multiplicity = 2

 SCF Done:  E(UB+HF-LYP) =  -1447.45974941     A.U. after   23 cycles
 SCF Done:  E(UB+HF-LYP) =  -1447.46574191     A.U. after   18 cycles
 SCF Done:  E(UB+HF-LYP) =  -1447.46931812     A.U. after   17 cycles
 SCF Done:  E(UB+HF-LYP) =  -1447.46969243     A.U. after   17 cycles
 SCF Done:  E(UB+HF-LYP) =  -1447.46969288     A.U. after   16 cycles
 Optimization completed.
 Normal termination of Gaussian 03 at Wed Apr  6 16:53:16 2011.

 ------------------------------------------------------------------
 #N Geom=AllCheck Guess=Read SCRF=Check GenChk UB3LYP/6-31G(d) Freq
 ------------------------------------------------------------------

 si5-n
 -----
 Redundant internal coordinates taken from checkpoint file:
 S9L-ne-d-01.chk
 Charge = -1 Multiplicity = 2

 SCF Done:  E(UB+HF-LYP) =  -1447.46969288     A.U. after    1 cycles
 Normal termination of Gaussian 03 at Wed Apr  6 16:54:30 2011.

 ----------------------------------------------------------------------
 # b3lyp/6-311G(d) opt=(readfc,noeigentest,maxcycle=500) freq scfcyc=50
 0 optcyc=500 geom=allcheck guess=read scf=xqc
 ----------------------------------------------------------------------

 si5-n
 -----
 Redundant internal coordinates taken from checkpoint file:
 S9L-ne-d-01.chk
 Charge = -1 Multiplicity = 2

 SCF Done:  E(UB+HF-LYP) =  -1447.57518101     A.U. after   12 cycles
 SCF Done:  E(UB+HF-LYP) =  -1447.57519867     A.U. after   16 cycles
 Normal termination of Gaussian 03 at Wed Apr  6 16:55:50 2011.

 -------------------------------------------------------------------
 #N Geom=AllCheck Guess=Read SCRF=Check GenChk UB3LYP/6-311G(d) Freq
 -------------------------------------------------------------------

 si5-n
 -----
 Redundant internal coordinates taken from checkpoint file:
 S9L-ne-d-01.chk
 Charge = -1 Multiplicity = 2

 SCF Done:  E(UB+HF-LYP) =  -1447.57519867     A.U. after    1 cycles
 Normal termination of Gaussian 03 at Wed Apr  6 16:57:37 2011.
 Gaussian 03:  AM64L-G03RevE.01 11-Sep-2007

 ----------------------------------------------------------------------
 # b3lyp/6-311+G(d) opt=(readfc,noeigentest,maxcycle=500) freq scfcyc=5
 00 optcyc=500 scf=xqc geom=allcheck guess=read
 ----------------------------------------------------------------------

 si5-n
 -----
 Redundant internal coordinates taken from checkpoint file:
 S9L-ne-d-01.chk
 Charge = -1 Multiplicity = 2

 SCF Done:  E(UB+HF-LYP) =  -1447.58173289     A.U. after   11 cycles
 SCF Done:  E(UB+HF-LYP) =  -1447.58173778     A.U. after    9 cycles
    -- Stationary point found.
 Normal termination of Gaussian 03 at Wed Apr  6 16:59:00 2011.

                         Standard orientation:
 ---------------------------------------------------------------------
 Center     Atomic     Atomic              Coordinates (Angstroms)
 Number     Number      Type              X           Y           Z
 ---------------------------------------------------------------------
    1         14             0       -1.389002    0.801914    0.000000
    2         14             0        1.389003    0.801913    0.000000
    3         14             0        0.000000   -1.603891    0.000000
    4         14             0        0.000000    0.000032    1.725613
    5         14             0        0.000000    0.000032   -1.725613
 ---------------------------------------------------------------------

 SCF Done:  E(UB+HF-LYP) =  -1447.58173778     A.U. after    1 cycles

 The electronic state is 2-A".
 Alpha  occ. eigenvalues --  -65.94246 -65.94246 -65.93821 -65.93820 -65.93820
 Alpha  occ. eigenvalues --   -5.11379  -5.11379  -5.10816  -5.10813  -5.10813
 Alpha  occ. eigenvalues --   -3.47359  -3.47358  -3.47090  -3.47090  -3.47089
 Alpha  occ. eigenvalues --   -3.47089  -3.46650  -3.46650  -3.46646  -3.46559
 Alpha  occ. eigenvalues --   -3.46550  -3.46550  -3.46506  -3.46505  -3.46505
 Alpha  occ. eigenvalues --   -0.47380  -0.32387  -0.27368  -0.27367  -0.16640
 Alpha  occ. eigenvalues --   -0.10433  -0.09330  -0.09329  -0.05629  -0.05628
 Alpha  occ. eigenvalues --   -0.05316
 Alpha virt. eigenvalues --    0.07737   0.07738   0.10867   0.10867   0.11441
 Alpha virt. eigenvalues --    0.11840   0.12070   0.13922   0.15199   0.15200
 Alpha virt. eigenvalues --    0.15842   0.15842   0.16215   0.16750   0.16751

  Beta  occ. eigenvalues --  -65.94068 -65.94068 -65.93796 -65.93796 -65.93796
  Beta  occ. eigenvalues --   -5.11199  -5.11199  -5.10793  -5.10790  -5.10790
  Beta  occ. eigenvalues --   -3.46985  -3.46985  -3.46985  -3.46985  -3.46786
  Beta  occ. eigenvalues --   -3.46783  -3.46643  -3.46643  -3.46640  -3.46547
  Beta  occ. eigenvalues --   -3.46543  -3.46543  -3.46406  -3.46406  -3.46405
  Beta  occ. eigenvalues --   -0.46632  -0.30983  -0.27103  -0.27102  -0.13667
  Beta  occ. eigenvalues --   -0.09897  -0.08839  -0.08839  -0.05570  -0.05570
  Beta virt. eigenvalues --    0.01637   0.07891   0.07892   0.11208   0.11208
  Beta virt. eigenvalues --    0.11672   0.11977   0.12060   0.14069   0.15367
  Beta virt. eigenvalues --    0.15367   0.15882   0.15882   0.16530   0.16865

 Mulliken atomic charges:
              1
     1  Si  -0.264417
     2  Si  -0.264417
     3  Si  -0.264444
     4  Si  -0.103361
     5  Si  -0.103361
 Sum of Mulliken charges=  -1.00000

 Dipole moment (field-independent basis, Debye):
    X=     0.0000    Y=     0.0000    Z=     0.0000  Tot=     0.0000
 Quadrupole moment (field-independent basis, Debye-Ang):
   XX=   -82.9154   YY=   -82.9161   ZZ=   -82.6624
   XY=     0.0000   XZ=     0.0000   YZ=     0.0000

  Exact polarizability: 198.286   0.000 198.285   0.000   0.000 224.180
 Approx polarizability: 481.872   0.000 481.874   0.000   0.000 537.159

                     1                      2                      3
                    A'                     A'                     A'
 Frequencies --   191.9992               192.0000               291.7351
 Red. masses --    27.9769                27.9769                27.9769
 Frc consts  --     0.6076                 0.6076                 1.4029
 IR Inten    --     0.6932                 0.6948                 0.0000

                     4                      5                      6
                    A"                     A"                     A'
 Frequencies --   328.2161               328.2885               359.6327
 Red. masses --    27.9769                27.9769                27.9769
 Frc consts  --     1.7757                 1.7765                 2.1319
 IR Inten    --     0.0000                 0.0000                 0.5969

                     7                      8                      9
                    A'                     A"                     A'
 Frequencies --   359.9679               428.2242               450.3991
 Red. masses --    27.9769                27.9769                27.9769
 Frc consts  --     2.1359                 3.0227                 3.3438
 IR Inten    --     0.5959                 2.5564                 0.0000

 - Thermochemistry -
 -------------------
 Temperature   298.150 Kelvin.  Pressure   1.00000 Atm.
 Atom  1 has atomic number 14 and mass  27.97693

 Molecular mass:   139.88464 amu.
 Principal axes and moments of inertia in atomic units:
                           1         2         3
     EIGENVALUES --   771.01064 980.49909 980.50512
           X            0.00000   0.99998  -0.00683
           Y            0.00000   0.00683   0.99998
           Z            1.00000   0.00000   0.00000
 This molecule is an asymmetric top.
 Rotational symmetry number  1.
 Warning -- assumption of classical behavior for rotation
           may cause significant error
 Rotational temperatures (Kelvin)      0.11234     0.08834     0.08834
 Rotational constants (GHZ):           2.34075     1.84064     1.84062
 Zero-point vibrational energy      17528.1 (Joules/Mol)
                                    4.18931 (Kcal/Mol)
 Warning -- explicit consideration of   9 degrees of freedom as
           vibrations may cause significant error
 Vibrational temperatures:    276.24   276.24   419.74   472.23   472.33
          (Kelvin)            517.43   517.91   616.12   648.02

 Zero-point correction=                           0.006676 (Hartree/Particle)
 Thermal correction to Energy=                    0.013106
 Thermal correction to Enthalpy=                  0.014050
 Thermal correction to Gibbs Free Energy=        -0.025156
 Sum of electronic and zero-point Energies=          -1447.575062
 Sum of electronic and thermal Energies=             -1447.568632
 Sum of electronic and thermal Enthalpies=           -1447.567688
 Sum of electronic and thermal Free Energies=        -1447.606894

                     E (Thermal)             CV                S
                      KCal/Mol        Cal/Mol-Kelvin    Cal/Mol-Kelvin
 Total                    8.224             20.470             82.515
 Electronic               0.000              0.000              1.377
 Translational            0.889              2.981             40.719
 Rotational               0.889              2.981             28.096
 Vibrational              6.446             14.508             12.323
 Vibration  1             0.634              1.851              2.208
 Vibration  2             0.634              1.851              2.208
 Vibration  3             0.687              1.689              1.464
 Vibration  4             0.711              1.619              1.269
 Vibration  5             0.712              1.619              1.268
 Vibration  6             0.734              1.555              1.124
 Vibration  7             0.734              1.555              1.122
 Vibration  8             0.790              1.409              0.864
 Vibration  9             0.809              1.360              0.795

 Optimization completed.
    -- Stationary point found.
 Normal termination of Gaussian 03 at Wed Apr  6 17:01:22 2011.
