 Gaussian 03, Revision E.01,

 ----------------------------------------------------------------------
 # b3lyp/LANL2DZ opt=(calcall,noeigentest,maxcycle=500) scfcyc=500 scf=
 xqc
 ----------------------------------------------------------------------

 -----
 si5-n
 -----
 Symbolic Z-matrix:
 Charge =  0 Multiplicity = 1

 SCF Done:  E(RB+HF-LYP) =  -19.2447363402     A.U. after   13 cycles
 SCF Done:  E(RB+HF-LYP) =  -19.2558588405     A.U. after   14 cycles
 SCF Done:  E(RB+HF-LYP) =  -19.2587098127     A.U. after   14 cycles
 SCF Done:  E(RB+HF-LYP) =  -19.2587523427     A.U. after    9 cycles
 Optimization completed.
    -- Stationary point found.
 Normal termination of Gaussian 03 at Mon Apr  4 15:55:05 2011.

 ----------------------------------------------------------------------
 # b3lyp/6-31G(d) opt=(readfc,noeigentest,maxcycle=500) freq scfcyc=500
  optcyc=500 geom=allcheck guess=read scf=xqc
 ----------------------------------------------------------------------

 si5-n
 -----
 Redundant internal coordinates taken from checkpoint file:
 S9L-ne-d-01.chk
 Charge =  0 Multiplicity = 1

 SCF Done:  E(RB+HF-LYP) =  -1447.37510949     A.U. after   20 cycles
 SCF Done:  E(RB+HF-LYP) =  -1447.38218720     A.U. after   12 cycles
 SCF Done:  E(RB+HF-LYP) =  -1447.38332107     A.U. after   12 cycles
 SCF Done:  E(RB+HF-LYP) =  -1447.38332376     A.U. after    8 cycles
 Optimization completed.
 Normal termination of Gaussian 03 at Mon Apr  4 15:57:04 2011.

 ------------------------------------------------------------------
 #N Geom=AllCheck Guess=Read SCRF=Check GenChk RB3LYP/6-31G(d) Freq
 ------------------------------------------------------------------

 si5-n
 -----
 Redundant internal coordinates taken from checkpoint file:
 S9L-ne-d-01.chk
 Charge =  0 Multiplicity = 1

 SCF Done:  E(RB+HF-LYP) =  -1447.38332376     A.U. after    1 cycles
 Normal termination of Gaussian 03 at Mon Apr  4 15:58:00 2011.

 ----------------------------------------------------------------------
 # b3lyp/6-311G(d) opt=(readfc,noeigentest,maxcycle=500) freq scfcyc=50
 0 optcyc=500 geom=allcheck guess=read scf=xqc
 ----------------------------------------------------------------------

 si5-n
 -----
 Redundant internal coordinates taken from checkpoint file:
 S9L-ne-d-01.chk
 Charge =  0 Multiplicity = 1

 SCF Done:  E(RB+HF-LYP) =  -1447.48903176     A.U. after   10 cycles
 SCF Done:  E(RB+HF-LYP) =  -1447.48904774     A.U. after   14 cycles
 Normal termination of Gaussian 03 at Mon Apr  4 15:59:09 2011.

 -------------------------------------------------------------------
 #N Geom=AllCheck Guess=Read SCRF=Check GenChk RB3LYP/6-311G(d) Freq
 -------------------------------------------------------------------

 si5-n
 -----
 Redundant internal coordinates taken from checkpoint file:
 S9L-ne-d-01.chk
 Charge =  0 Multiplicity = 1

 SCF Done:  E(RB+HF-LYP) =  -1447.48904774     A.U. after   14 cycles
 Normal termination of Gaussian 03 at Mon Apr  4 16:00:19 2011.
 Gaussian 03:  AM64L-G03RevE.01 11-Sep-2007

 ----------------------------------------------------------------------
 # b3lyp/6-311+G(d) opt=(readfc,noeigentest,maxcycle=500) freq scfcyc=5
 00 optcyc=500 scf=xqc geom=allcheck guess=read
 ----------------------------------------------------------------------

 si5-n
 -----
 Redundant internal coordinates taken from checkpoint file:
 S9L-ne-d-01.chk
 Charge =  0 Multiplicity = 1

 SCF Done:  E(RB+HF-LYP) =  -1447.49210903     A.U. after   10 cycles
 SCF Done:  E(RB+HF-LYP) =  -1447.49214899     A.U. after    9 cycles
    -- Stationary point found.
 Normal termination of Gaussian 03 at Mon Apr  4 16:01:32 2011.

                         Standard orientation:
 ---------------------------------------------------------------------
 Center     Atomic     Atomic              Coordinates (Angstroms)
 Number     Number      Type              X           Y           Z
 ---------------------------------------------------------------------
    1         14             0        0.000000    1.562679   -0.902312
    2         14             0        0.000000   -1.562679   -0.902312
    3         14             0        0.000000    0.000000    1.804353
    4         14             0        1.473715    0.000000    0.000136
    5         14             0       -1.473715    0.000000    0.000136
 ---------------------------------------------------------------------

 SCF Done:  E(RB+HF-LYP) =  -1447.49214899     A.U. after    1 cycles

 The electronic state is 1-A1.
 Alpha  occ. eigenvalues --  -66.12436 -66.12436 -66.12434 -66.11017 -66.11017
 Alpha  occ. eigenvalues --   -5.29317  -5.29315  -5.29314  -5.28255  -5.28251
 Alpha  occ. eigenvalues --   -3.65230  -3.65230  -3.65229  -3.65017  -3.65014
 Alpha  occ. eigenvalues --   -3.65014  -3.64923  -3.64923  -3.64922  -3.64226
 Alpha  occ. eigenvalues --   -3.64223  -3.63889  -3.63889  -3.63889  -3.63888
 Alpha  occ. eigenvalues --   -0.64103  -0.46480  -0.46287  -0.46285  -0.30571
 Alpha  occ. eigenvalues --   -0.26829  -0.26019  -0.26016  -0.23426  -0.23423
 Alpha virt. eigenvalues --   -0.11767  -0.10660  -0.10658  -0.06607  -0.02239
 Alpha virt. eigenvalues --   -0.00696  -0.00696   0.01351   0.01659   0.01663
 Alpha virt. eigenvalues --    0.03164   0.04367   0.04367   0.04841   0.04988

 Mulliken atomic charges:
              1
     1  Si   0.055423
     2  Si   0.055423
     3  Si   0.055383
     4  Si  -0.083114
     5  Si  -0.083114
 Sum of Mulliken charges=   0.00000

 Dipole moment (field-independent basis, Debye):
    X=     0.0000    Y=     0.0000    Z=    -0.0002  Tot=     0.0002
 Quadrupole moment (field-independent basis, Debye-Ang):
   XX=   -64.5970   YY=   -67.0807   ZZ=   -67.0805
   XY=     0.0000   XZ=     0.0000   YZ=     0.0000

  Exact polarizability: 158.680   0.000 170.945   0.000   0.000 170.942
 Approx polarizability: 469.643   0.000 484.161   0.000   0.000 484.190

                     1                      2                      3
                    A1                     B2                     A1
 Frequencies --   169.7777               169.8468               228.0239
 Red. masses --    27.9769                27.9769                27.9769
 Frc consts  --     0.4751                 0.4755                 0.8571
 IR Inten    --     0.5730                 0.5738                 0.0000

                     4                      5                      6
                    A2                     B1                     B1
 Frequencies --   337.3593               337.9028               375.4456
 Red. masses --    27.9769                27.9769                27.9769
 Frc consts  --     1.8760                 1.8821                 2.3235
 IR Inten    --     0.0000                 0.0011                 4.5759

                     7                      8                      9
                    B2                     A1                     A1
 Frequencies --   432.2959               432.3756               455.6842
 Red. masses --    27.9769                27.9769                27.9769
 Frc consts  --     3.0804                 3.0816                 3.4228
 IR Inten    --     4.5527                 4.5494                 0.0003

 - Thermochemistry -
 -------------------
 Temperature   298.150 Kelvin.  Pressure   1.00000 Atm.
 Atom  1 has atomic number 14 and mass  27.97693

 Molecular mass:   139.88464 amu.
 Principal axes and moments of inertia in atomic units:
                           1         2         3
     EIGENVALUES --   921.90653 921.91546 975.89136
           X            0.00000   0.00000   1.00000
           Y            0.00000   1.00000   0.00000
           Z            1.00000   0.00000   0.00000
 This molecule is an asymmetric top.
 Rotational symmetry number  2.
 Warning -- assumption of classical behavior for rotation
           may cause significant error
 Rotational temperatures (Kelvin)      0.09395     0.09395     0.08875
 Rotational constants (GHZ):           1.95762     1.95760     1.84933
 Zero-point vibrational energy      17577.4 (Joules/Mol)
                                    4.20110 (Kcal/Mol)
 Warning -- explicit consideration of   9 degrees of freedom as
           vibrations may cause significant error
 Vibrational temperatures:    244.27   244.37   328.08   485.38   486.17
          (Kelvin)            540.18   621.98   622.09   655.63

 Zero-point correction=                           0.006695 (Hartree/Particle)
 Thermal correction to Energy=                    0.013167
 Thermal correction to Enthalpy=                  0.014111
 Thermal correction to Gibbs Free Energy=        -0.024044
 Sum of electronic and zero-point Energies=          -1447.485454
 Sum of electronic and thermal Energies=             -1447.478982
 Sum of electronic and thermal Enthalpies=           -1447.478038
 Sum of electronic and thermal Free Energies=        -1447.516193

                     E (Thermal)             CV                S
                      KCal/Mol        Cal/Mol-Kelvin    Cal/Mol-Kelvin
 Total                    8.262             20.390             80.304
 Electronic               0.000              0.000              0.000
 Translational            0.889              2.981             40.719
 Rotational               0.889              2.981             26.830
 Vibrational              6.485             14.429             12.755
 Vibration  1             0.625              1.880              2.438
 Vibration  2             0.625              1.880              2.437
 Vibration  3             0.651              1.798              1.894
 Vibration  4             0.718              1.601              1.225
 Vibration  5             0.718              1.600              1.222
 Vibration  6             0.746              1.522              1.057
 Vibration  7             0.793              1.400              0.851
 Vibration  8             0.793              1.400              0.851
 Vibration  9             0.814              1.348              0.779

 Optimization completed.
    -- Stationary point found.
 Normal termination of Gaussian 03 at Mon Apr  4 16:02:56 2011.
