 Gaussian 03, Revision E.01,

 ----------------------------------------------------------------------
 # b3lyp/LANL2DZ opt=(calcall,noeigentest,maxcycle=500) scfcyc=500 scf=
 xqc
 ----------------------------------------------------------------------

 -----
 si6-n
 -----
 Symbolic Z-matrix:
 Charge =  0 Multiplicity = 1

 SCF Done:  E(RB+HF-LYP) =  -23.1045913732     A.U. after   16 cycles
 SCF Done:  E(RB+HF-LYP) =  -23.1157796627     A.U. after   18 cycles
 SCF Done:  E(RB+HF-LYP) =  -23.1226592801     A.U. after   17 cycles
 SCF Done:  E(RB+HF-LYP) =  -23.1234647654     A.U. after   15 cycles
 SCF Done:  E(RB+HF-LYP) =  -23.1234788391     A.U. after   11 cycles
 SCF Done:  E(RB+HF-LYP) =  -23.1234794211     A.U. after   10 cycles
 SCF Done:  E(RB+HF-LYP) =  -23.1234794608     A.U. after    9 cycles
 Optimization completed.
    -- Stationary point found.
 ******    1 imaginary frequencies (negative Signs) ******
    1 imaginary frequencies ignored.
 Normal termination of Gaussian 03 at Mon Apr  4 15:57:22 2011.

 ----------------------------------------------------------------------
 # b3lyp/6-311G(d) opt=(readfc,noeigentest,maxcycle=500) freq scfcyc=50
 0 optcyc=500 geom=allcheck guess=read scf=xqc
 ----------------------------------------------------------------------

 si6-n
 -----
 Redundant internal coordinates taken from checkpoint file:
 S9L-ne-d-01.chk
 Charge =  0 Multiplicity = 1

 SCF Done:  E(RB+HF-LYP) =  -1737.00674205     A.U. after   22 cycles
 SCF Done:  E(RB+HF-LYP) =  -1737.01530527     A.U. after   13 cycles
 SCF Done:  E(RB+HF-LYP) =  -1737.02203442     A.U. after   13 cycles
 SCF Done:  E(RB+HF-LYP) =  -1737.02296757     A.U. after   13 cycles
 SCF Done:  E(RB+HF-LYP) =  -1737.02300717     A.U. after   10 cycles
 SCF Done:  E(RB+HF-LYP) =  -1737.02301936     A.U. after   10 cycles
 SCF Done:  E(RB+HF-LYP) =  -1737.02302006     A.U. after   10 cycles
 Optimization completed.
 Normal termination of Gaussian 03 at Mon Apr  4 16:01:37 2011.

 -------------------------------------------------------------------
 #N Geom=AllCheck Guess=Read SCRF=Check GenChk RB3LYP/6-311G(d) Freq
 -------------------------------------------------------------------

 si6-n
 -----
 Redundant internal coordinates taken from checkpoint file:
 S9L-ne-d-01.chk
 Charge =  0 Multiplicity = 1

 SCF Done:  E(RB+HF-LYP) =  -1737.02302006     A.U. after    1 cycles
 Normal termination of Gaussian 03 at Mon Apr  4 16:03:36 2011.
 Gaussian 03:  AM64L-G03RevE.01 11-Sep-2007

 ----------------------------------------------------------------------
 # b3lyp/6-311+G(d) opt=(readfc,noeigentest,maxcycle=500) freq scfcyc=5
 00 optcyc=500 scf=xqc geom=allcheck guess=read
 ----------------------------------------------------------------------

 si6-n
 -----
 Redundant internal coordinates taken from checkpoint file:
 S9L-ne-d-01.chk
 Charge =  0 Multiplicity = 1

 SCF Done:  E(RB+HF-LYP) =  -1737.02640423     A.U. after   11 cycles
 SCF Done:  E(RB+HF-LYP) =  -1737.02641337     A.U. after   11 cycles
    -- Stationary point found.
 Normal termination of Gaussian 03 at Mon Apr  4 16:05:09 2011.

 --------------------------------------------------------------------
 #N Geom=AllCheck Guess=Read SCRF=Check GenChk RB3LYP/6-311+G(d) Freq
 --------------------------------------------------------------------

 si6-n
 -----
 Redundant internal coordinates taken from checkpoint file:
 S9L-ne-d-01.chk
 Charge =  0 Multiplicity = 1

                         Standard orientation:
 ---------------------------------------------------------------------
 Center     Atomic     Atomic              Coordinates (Angstroms)
 Number     Number      Type              X           Y           Z
 ---------------------------------------------------------------------
    1         14             0        0.000023   -0.176499    1.351205
    2         14             0       -0.000113   -2.089546    0.000000
    3         14             0        0.000023    1.852317    0.000000
    4         14             0       -1.949797    0.295151    0.000000
    5         14             0        1.949842    0.295076    0.000000
    6         14             0        0.000023   -0.176499   -1.351205
 ---------------------------------------------------------------------

 SCF Done:  E(RB+HF-LYP) =  -1737.02641337     A.U. after    1 cycles

 The electronic state is 1-A'.
 Alpha  occ. eigenvalues --  -66.13795 -66.12676 -66.12675 -66.12407 -66.11373
 Alpha  occ. eigenvalues --  -66.11373  -5.30601  -5.29503  -5.29501  -5.29351
 Alpha  occ. eigenvalues --   -5.28662  -5.28656  -3.66575  -3.66338  -3.66109
 Alpha  occ. eigenvalues --   -3.65373  -3.65373  -3.65295  -3.65294  -3.65290
 Alpha  occ. eigenvalues --   -3.65062  -3.65062  -3.65000  -3.64995  -3.64598
 Alpha  occ. eigenvalues --   -3.64588  -3.64327  -3.64326  -3.64314  -3.64314
 Alpha  occ. eigenvalues --   -0.67728  -0.51713  -0.50675  -0.46681  -0.37124
 Alpha  occ. eigenvalues --   -0.34107  -0.28135  -0.26996  -0.26954  -0.26856
 Alpha  occ. eigenvalues --   -0.23348  -0.22809
 Alpha virt. eigenvalues --   -0.10956  -0.09823  -0.09616  -0.09242  -0.03998
 Alpha virt. eigenvalues --   -0.02640  -0.01801  -0.00975   0.00134   0.01930
 Alpha virt. eigenvalues --    0.02132   0.02595   0.02620   0.04058   0.04110

 Mulliken atomic charges:
              1
     1  Si  -0.239956
     2  Si   0.278908
     3  Si  -0.052967
     4  Si   0.126958
     5  Si   0.127014
     6  Si  -0.239956
 Sum of Mulliken charges=   0.00000

 Dipole moment (field-independent basis, Debye):
    X=     0.0000    Y=    -0.1390    Z=     0.0000  Tot=     0.1390
 Quadrupole moment (field-independent basis, Debye-Ang):
   XX=   -83.1518   YY=   -80.9315   ZZ=   -77.2253
   XY=     0.0000   XZ=     0.0000   YZ=     0.0000

  Exact polarizability: 198.771   0.002 202.738   0.000   0.000 153.990
 Approx polarizability: 527.289   0.010 563.494   0.000   0.000 448.707

                     1                      2                      3
                    A'                     A'                     A"
 Frequencies --     5.1581                96.8973               112.8797
 Red. masses --    27.9769                27.9769                27.9769
 Frc consts  --     0.0004                 0.1548                 0.2100
 IR Inten    --     0.3153                 0.0301                 0.0083

                     4                      5                      6
                    A'                     A"                     A'
 Frequencies --   267.1501               291.7810               323.6698
 Red. masses --    27.9769                27.9769                27.9769
 Frc consts  --     1.1764                 1.4033                 1.7268
 IR Inten    --     0.8983                 0.7496                 0.0239

                     7                      8                      9
                    A"                     A'                     A"
 Frequencies --   347.5126               357.9123               389.0518
 Red. masses --    27.9769                27.9769                27.9769
 Frc consts  --     1.9906                 2.1116                 2.4950
 IR Inten    --     0.0000                 0.5939                 0.4108

                    10                     11                     12
                    A'                     A'                     A'
 Frequencies --   431.5651               434.0325               456.5876
 Red. masses --    27.9769                27.9769                27.9769
 Frc consts  --     3.0700                 3.1052                 3.4364
 IR Inten    --    22.7023                 2.2688                19.1796

 - Thermochemistry -
 -------------------
 Temperature   298.150 Kelvin.  Pressure   1.00000 Atm.
 Atom  1 has atomic number 14 and mass  27.97693

 Molecular mass:   167.86157 amu.
 Principal axes and moments of inertia in atomic units:
                           1         2         3
     EIGENVALUES --  1124.468131167.445941562.28842
           X            0.00032   1.00000   0.00000
           Y            1.00000  -0.00032   0.00000
           Z            0.00000   0.00000   1.00000
 This molecule is an asymmetric top.
 Rotational symmetry number  1.
 Warning -- assumption of classical behavior for rotation
           may cause significant error
 Rotational temperatures (Kelvin)      0.07703     0.07419     0.05544
 Rotational constants (GHZ):           1.60497     1.54589     1.15519
 Zero-point vibrational energy      21019.6 (Joules/Mol)
                                    5.02380 (Kcal/Mol)
 Warning -- explicit consideration of  12 degrees of freedom as
           vibrations may cause significant error
 Vibrational temperatures:      7.42   139.41   162.41   384.37   419.81
          (Kelvin)            465.69   499.99   514.96   559.76   620.93
                              624.48   656.93

 Zero-point correction=                           0.008006 (Hartree/Particle)
 Thermal correction to Energy=                    0.016359
 Thermal correction to Enthalpy=                  0.017303
 Thermal correction to Gibbs Free Energy=        -0.028588
 Sum of electronic and zero-point Energies=          -1737.018407
 Sum of electronic and thermal Energies=             -1737.010054
 Sum of electronic and thermal Enthalpies=           -1737.009110
 Sum of electronic and thermal Free Energies=        -1737.055002

                     E (Thermal)             CV                S
                      KCal/Mol        Cal/Mol-Kelvin    Cal/Mol-Kelvin
 Total                   10.266             25.666             96.588
 Electronic               0.000              0.000              0.000
 Translational            0.889              2.981             41.262
 Rotational               0.889              2.981             29.107
 Vibrational              8.488             19.705             26.218
 Vibration  1             0.593              1.987              9.326
 Vibration  2             0.603              1.951              3.516
 Vibration  3             0.607              1.939              3.219
 Vibration  4             0.672              1.733              1.615
 Vibration  5             0.687              1.689              1.464
 Vibration  6             0.708              1.628              1.292
 Vibration  7             0.725              1.580              1.177
 Vibration  8             0.733              1.559              1.131
 Vibration  9             0.757              1.494              1.004
 Vibration 10             0.793              1.401              0.854
 Vibration 11             0.795              1.396              0.846
 Vibration 12             0.815              1.346              0.776

 Optimization completed.
    -- Stationary point found.
 Normal termination of Gaussian 03 at Mon Apr  4 16:07:55 2011.
