 Gaussian 03, Revision E.01,

 ----------------------------------------------------------------------
 # b3lyp/LANL2DZ opt=(calcall,noeigentest,maxcycle=500) nosym scfcyc=50
 0 scf=xqc
 ----------------------------------------------------------------------

 -------------------------
 si7li-an-doublet-isomer01
 -------------------------
 Symbolic Z-matrix:
 Charge = -1 Multiplicity = 2

 SCF Done:  E(UB+HF-LYP) =  -27.0736834655     A.U. after   16 cycles
 SCF Done:  E(UB+HF-LYP) =  -27.0799759836     A.U. after   15 cycles
 SCF Done:  E(UB+HF-LYP) =  -27.0845688373     A.U. after   15 cycles
 SCF Done:  E(UB+HF-LYP) =  -27.0851834266     A.U. after   14 cycles
 Optimization completed.
    -- Stationary point found.
 Normal termination of Gaussian 03 at Tue Nov  9 13:38:36 2010.

 ----------------------------------------------------------------------
 # b3lyp/6-31G(d) opt=(readfc,noeigentest) freq scfcyc=500 optcyc=500 g
 eom=allcheck guess=read scf=xqc
 ----------------------------------------------------------------------

 si7li-an-doublet-isomer01
 -------------------------
 Redundant internal coordinates taken from checkpoint file:
 S7L-an-d-01.chk
 Charge = -1 Multiplicity = 2

 SCF Done:  E(UB+HF-LYP) =  -2026.45251618     A.U. after   23 cycles
 SCF Done:  E(UB+HF-LYP) =  -2026.46144687     A.U. after   14 cycles
 SCF Done:  E(UB+HF-LYP) =  -2026.47036841     A.U. after   17 cycles
 SCF Done:  E(UB+HF-LYP) =  -2026.47401047     A.U. after   14 cycles
 SCF Done:  E(UB+HF-LYP) =  -2026.47479819     A.U. after   17 cycles
 SCF Done:  E(UB+HF-LYP) =  -2026.47481456     A.U. after   14 cycles
 Optimization completed.
 Normal termination of Gaussian 03 at Tue Nov  9 13:43:00 2010.

 ------------------------------------------------------------------
 #N Geom=AllCheck Guess=Read SCRF=Check GenChk UB3LYP/6-31G(d) Freq
 ------------------------------------------------------------------

 si7li-an-doublet-isomer01
 -------------------------
 Redundant internal coordinates taken from checkpoint file:
 S7L-an-d-01.chk
 Charge = -1 Multiplicity = 2

 SCF Done:  E(UB+HF-LYP) =  -2026.47481456     A.U. after    1 cycles
 Normal termination of Gaussian 03 at Tue Nov  9 13:45:38 2010.

 ----------------------------------------------------------------------
 # b3lyp/6-311G(d) opt=(readfc,noeigentest) freq scfcyc=500 optcyc=500
 geom=allcheck guess=read scf=xqc
 ----------------------------------------------------------------------

 si7li-an-doublet-isomer01
 -------------------------
 Redundant internal coordinates taken from checkpoint file:
 S7L-an-d-01.chk
 Charge = -1 Multiplicity = 2

 SCF Done:  E(UB+HF-LYP) =  -2026.62338586     A.U. after   11 cycles
 SCF Done:  E(UB+HF-LYP) =  -2026.62339381     A.U. after    9 cycles
 Normal termination of Gaussian 03 at Tue Nov  9 13:47:26 2010.

 -------------------------------------------------------------------
 #N Geom=AllCheck Guess=Read SCRF=Check GenChk UB3LYP/6-311G(d) Freq
 -------------------------------------------------------------------

 si7li-an-doublet-isomer01
 -------------------------
 Redundant internal coordinates taken from checkpoint file:
 S7L-an-d-01.chk
 Charge = -1 Multiplicity = 2

 SCF Done:  E(UB+HF-LYP) =  -2026.62339381     A.U. after    1 cycles
 Normal termination of Gaussian 03 at Tue Nov  9 13:52:11 2010.
 Gaussian 03:  AM64L-G03RevE.01 11-Sep-2007

 ----------------------------------------------------------------------
 # b3lyp/6-311+G(d) opt=(readfc,noeigentest) freq scfcyc=500 optcyc=500
  scf=xqc geom=allcheck guess=read
 ----------------------------------------------------------------------

 si7li-an-doublet-isomer01
 -------------------------
 Redundant internal coordinates taken from checkpoint file:
 S7L-an-d-01.chk
 Charge = -1 Multiplicity = 2

 SCF Done:  E(UB+HF-LYP) =  -2026.62879246     A.U. after   11 cycles
 SCF Done:  E(UB+HF-LYP) =  -2026.62879641     A.U. after   15 cycles
    -- Stationary point found.
 Normal termination of Gaussian 03 at Tue Nov  9 13:55:25 2010.

                         Standard orientation:
 ---------------------------------------------------------------------
 Center     Atomic     Atomic              Coordinates (Angstroms)
 Number     Number      Type              X           Y           Z
 ---------------------------------------------------------------------
    1         14             0       -1.985899    0.645327    0.000000
    2         14             0        0.000000    2.087981    0.000000
    3         14             0        1.985899    0.645327    0.000000
    4         14             0        1.227452   -1.689351    0.000000
    5         14             0       -1.227452   -1.689351    0.000000
    6         14             0        0.000000    0.000033    1.463967
    7         14             0        0.000000    0.000033   -1.463967
 ---------------------------------------------------------------------

 SCF Done:  E(UB+HF-LYP) =  -2026.62879641     A.U. after    1 cycles

 The electronic state is 2-A".
 Alpha  occ. eigenvalues --  -65.96994 -65.96994 -65.96047 -65.96047 -65.96046
 Alpha  occ. eigenvalues --  -65.96046 -65.96044  -5.13992  -5.13987  -5.13028
 Alpha  occ. eigenvalues --   -5.13027  -5.13027  -5.13021  -5.13020  -3.49875
 Alpha  occ. eigenvalues --   -3.49871  -3.49718  -3.49718  -3.49718  -3.49718
 Alpha  occ. eigenvalues --   -3.48995  -3.48993  -3.48993  -3.48990  -3.48989
 Alpha  occ. eigenvalues --   -3.48703  -3.48702  -3.48684  -3.48684  -3.48670
 Alpha  occ. eigenvalues --   -3.48658  -3.48651  -3.48651  -3.48644  -3.48643
 Alpha  occ. eigenvalues --   -0.52062  -0.38407  -0.38406  -0.32653  -0.23077
 Alpha  occ. eigenvalues --   -0.23075  -0.22111  -0.13861  -0.13652  -0.13652
 Alpha  occ. eigenvalues --   -0.08561  -0.08561  -0.07951  -0.07949  -0.03127
 Alpha virt. eigenvalues --    0.06346   0.06347   0.07232   0.08992   0.08992
 Alpha virt. eigenvalues --    0.09837   0.10881   0.10881   0.11736   0.11736
 Alpha virt. eigenvalues --    0.12563   0.13599   0.13599   0.14823   0.14823

  Beta  occ. eigenvalues --  -65.96860 -65.96860 -65.96015 -65.96015 -65.96014
  Beta  occ. eigenvalues --  -65.96014 -65.96012  -5.13850  -5.13844  -5.12996
  Beta  occ. eigenvalues --   -5.12995  -5.12994  -5.12988  -5.12987  -3.49641
  Beta  occ. eigenvalues --   -3.49641  -3.49640  -3.49640  -3.49472  -3.49467
  Beta  occ. eigenvalues --   -3.48878  -3.48876  -3.48875  -3.48873  -3.48872
  Beta  occ. eigenvalues --   -3.48686  -3.48685  -3.48668  -3.48668  -3.48658
  Beta  occ. eigenvalues --   -3.48641  -3.48638  -3.48638  -3.48632  -3.48631
  Beta  occ. eigenvalues --   -0.51738  -0.38111  -0.38111  -0.31712  -0.22811
  Beta  occ. eigenvalues --   -0.22808  -0.21421  -0.13109  -0.13109  -0.11236
  Beta  occ. eigenvalues --   -0.08476  -0.08475  -0.07810  -0.07808
  Beta virt. eigenvalues --    0.02918   0.06847   0.06848   0.07570   0.09264
  Beta virt. eigenvalues --    0.09264   0.09939   0.10950   0.10951   0.11790
  Beta virt. eigenvalues --    0.11790   0.12792   0.13634   0.13634   0.14955

 Mulliken atomic charges:
              1
     1  Si  -0.057092
     2  Si  -0.057115
     3  Si  -0.057092
     4  Si  -0.057211
     5  Si  -0.057211
     6  Si  -0.357140
     7  Si  -0.357140
 Sum of Mulliken charges=  -1.00000

 Dipole moment (field-independent basis, Debye):
    X=     0.0000    Y=    -0.0004    Z=     0.0000  Tot=     0.0004
 Quadrupole moment (field-independent basis, Debye-Ang):
   XX=  -118.3968   YY=  -118.3987   ZZ=  -105.3714
   XY=     0.0000   XZ=     0.0000   YZ=     0.0000

  Exact polarizability: 279.156   0.000 279.125   0.000   0.000 210.170
 Approx polarizability: 720.383   0.000 720.352   0.000   0.000 519.776

                     1                      2                      3
                    A"                     A"                     A'
 Frequencies --   182.1413               182.3968               215.3109
 Red. masses --    27.9769                27.9769                27.9769
 Frc consts  --     0.5468                 0.5484                 0.7642
 IR Inten    --     0.0000                 0.0000                 0.2716

                     4                      5                      6
                    A'                     A"                     A'
 Frequencies --   215.4002               253.9761               269.9117
 Red. masses --    27.9769                27.9769                27.9769
 Frc consts  --     0.7648                 1.0633                 1.2009
 IR Inten    --     0.2702                 0.5335                 0.0000

                     7                      8                      9
                    A'                     A"                     A"
 Frequencies --   270.1707               292.3447               292.3556
 Red. masses --    27.9769                27.9769                27.9769
 Frc consts  --     1.2032                 1.4088                 1.4089
 IR Inten    --     0.0000                 0.0000                 0.0000

                    10                     11                     12
                    A'                     A'                     A'
 Frequencies --   300.6382               333.8289               334.3251
 Red. masses --    27.9769                27.9769                27.9769
 Frc consts  --     1.4898                 1.8370                 1.8424
 IR Inten    --     0.0000                 0.0000                 0.0000

                    13                     14                     15
                    A'                     A'                     A'
 Frequencies --   377.2224               377.3074               391.5674
 Red. masses --    27.9769                27.9769                27.9769
 Frc consts  --     2.3456                 2.3466                 2.5273
 IR Inten    --     2.0969                 2.0976                 0.0000

 - Thermochemistry -
 -------------------
 Temperature   298.150 Kelvin.  Pressure   1.00000 Atm.
 Atom  1 has atomic number 14 and mass  27.97693

 Molecular mass:   195.83850 amu.
 Principal axes and moments of inertia in atomic units:
                           1         2         3
     EIGENVALUES --  1517.271461517.321132178.10591
           X            1.00000   0.00000   0.00000
           Y            0.00000   1.00000   0.00000
           Z            0.00000   0.00000   1.00000
 This molecule is an asymmetric top.
 Rotational symmetry number  1.
 Warning -- assumption of classical behavior for rotation
           may cause significant error
 Rotational temperatures (Kelvin)      0.05709     0.05708     0.03977
 Rotational constants (GHZ):           1.18946     1.18943     0.82858
 Zero-point vibrational energy      25653.3 (Joules/Mol)
                                    6.13129 (Kcal/Mol)
 Warning -- explicit consideration of  15 degrees of freedom as
           vibrations may cause significant error
 Vibrational temperatures:    262.06   262.43   309.78   309.91   365.41
          (Kelvin)            388.34   388.71   420.62   420.63   432.55
                              480.30   481.02   542.74   542.86   563.38

 Zero-point correction=                           0.009771 (Hartree/Particle)
 Thermal correction to Energy=                    0.019274
 Thermal correction to Enthalpy=                  0.020218
 Thermal correction to Gibbs Free Energy=        -0.025634
 Sum of electronic and zero-point Energies=          -2026.619026
 Sum of electronic and thermal Energies=             -2026.609523
 Sum of electronic and thermal Enthalpies=           -2026.608578
 Sum of electronic and thermal Free Energies=        -2026.654431

                     E (Thermal)             CV                S
                      KCal/Mol        Cal/Mol-Kelvin    Cal/Mol-Kelvin
 Total                   12.095             31.326             96.504
 Electronic               0.000              0.000              1.377
 Translational            0.889              2.981             41.722
 Rotational               0.889              2.981             29.996
 Vibrational             10.317             25.365             23.409
 Vibration  1             0.630              1.864              2.306
 Vibration  2             0.630              1.864              2.304
 Vibration  3             0.645              1.818              1.998
 Vibration  4             0.645              1.818              1.997
 Vibration  5             0.665              1.756              1.703
 Vibration  6             0.674              1.729              1.597
 Vibration  7             0.674              1.728              1.595
 Vibration  8             0.688              1.688              1.460
 Vibration  9             0.688              1.688              1.460
 Vibration 10             0.693              1.672              1.413
 Vibration 11             0.715              1.608              1.241
 Vibration 12             0.716              1.607              1.239
 Vibration 13             0.748              1.519              1.050
 Vibration 14             0.748              1.518              1.050
 Vibration 15             0.759              1.488              0.994

 Optimization completed.
    -- Stationary point found.
 Normal termination of Gaussian 03 at Tue Nov  9 14:03:30 2010.
