 Gaussian 09, Revision A.02,

 --------------------------------------
 # b3lyp/6-311G freq scfcyc=500 scf=xqc
 --------------------------------------

 --------------------------
 si8li-cation-doublet-adiab
 --------------------------
 Symbolic Z-matrix:
 Charge =  1 Multiplicity = 2

 SCF Done:  E(UB3LYP) =  -2315.60348600     A.U. after   16 cycles
 ******    1 imaginary frequencies (negative Signs) ******
    1 imaginary frequencies ignored.
 Normal termination of Gaussian 09 at Tue Apr  3 13:43:07 2012.
 Gaussian 09:  AM64L-G09RevA.02 11-Jun-2009

 ----------------------------------------------------------------------
 # b3lyp/6-311+G(d) opt=(readfc,noeigentest) freq scfcyc=500 optcyc=500
  scf=xqc geom=allcheck guess=read
 ----------------------------------------------------------------------

 --------------------------
 No Z-matrix found on checkpoint file.
 Cartesian coordinates read from the checkpoint file:
 S8L-ne-d-01.chk
 Charge =  1 Multiplicity = 2

 SCF Done:  E(UB3LYP) =  -2315.77315948     A.U. after   15 cycles
 SCF Done:  E(UB3LYP) =  -2315.77538747     A.U. after   18 cycles
 SCF Done:  E(UB3LYP) =  -2315.77774542     A.U. after   16 cycles
 SCF Done:  E(UB3LYP) =  -2315.77806783     A.U. after   15 cycles
 SCF Done:  E(UB3LYP) =  -2315.77768838     A.U. after   16 cycles
 SCF Done:  E(UB3LYP) =  -2315.77795516     A.U. after   14 cycles
 SCF Done:  E(UB3LYP) =  -2315.77808544     A.U. after   15 cycles
 SCF Done:  E(UB3LYP) =  -2315.77813565     A.U. after   14 cycles
 SCF Done:  E(UB3LYP) =  -2315.77815062     A.U. after   14 cycles
 SCF Done:  E(UB3LYP) =  -2315.77814762     A.U. after   18 cycles
 SCF Done:  E(UB3LYP) =  -2315.77817314     A.U. after   14 cycles
 SCF Done:  E(UB3LYP) =  -2315.77814799     A.U. after   17 cycles
 SCF Done:  E(UB3LYP) =  -2315.77817696     A.U. after   18 cycles
 SCF Done:  E(UB3LYP) =  -2315.77817972     A.U. after   13 cycles
 SCF Done:  E(UB3LYP) =  -2315.77817307     A.U. after   18 cycles
 SCF Done:  E(UB3LYP) =  -2315.77817974     A.U. after   14 cycles
 SCF Done:  E(UB3LYP) =  -2315.77817980     A.U. after   11 cycles
 SCF Done:  E(UB3LYP) =  -2315.77817979     A.U. after   17 cycles
 Optimization completed.
    -- Stationary point found.
 Normal termination of Gaussian 09 at Tue Apr  3 14:05:36 2012.

 ----------------------------------------------------------------------
 #N Geom=AllCheck Guess=TCheck SCRF=Check GenChk UB3LYP/6-311+G(d) Freq
 ----------------------------------------------------------------------

 si8li-cation-doublet-adiab
 --------------------------
 Redundant internal coordinates taken from checkpoint file:
 S8L-ne-d-01.chk
 Charge =  1 Multiplicity = 2

                         Standard orientation:
 ---------------------------------------------------------------------
 Center     Atomic      Atomic             Coordinates (Angstroms)
 Number     Number       Type             X           Y           Z
 ---------------------------------------------------------------------
      1         14           0       -0.655115    1.236670   -1.401223
      2         14           0        0.655115   -1.236670   -1.401223
      3         14           0       -0.654924    1.236355    1.401305
      4         14           0        0.654924   -1.236355    1.401305
      5         14           0        1.373467    0.583115   -0.000184
      6         14           0       -1.373467   -0.583115   -0.000184
      7         14           0        0.654924    2.826679    0.000101
      8         14           0       -0.654924   -2.826679    0.000101
 ---------------------------------------------------------------------

 SCF Done:  E(UB3LYP) =  -2315.77817979     A.U. after    1 cycles

 The electronic state is 2-A.
 Alpha  occ. eigenvalues --  -66.29446 -66.29445 -66.29445 -66.29444 -66.29218
 Alpha  occ. eigenvalues --  -66.29218 -66.28152 -66.28152  -5.46361  -5.46356
 Alpha  occ. eigenvalues --   -5.46267  -5.46267  -5.46265  -5.46263  -5.44909
 Alpha  occ. eigenvalues --   -5.44909  -3.82290  -3.82286  -3.82211  -3.82208
 Alpha  occ. eigenvalues --   -3.82206  -3.82203  -3.82200  -3.82192  -3.82064
 Alpha  occ. eigenvalues --   -3.82063  -3.82056  -3.82055  -3.81893  -3.81890
 Alpha  occ. eigenvalues --   -3.81821  -3.81818  -3.81817  -3.81815  -3.80774
 Alpha  occ. eigenvalues --   -3.80774  -3.80644  -3.80644  -3.80547  -3.80547
 Alpha  occ. eigenvalues --   -0.84754  -0.75047  -0.67061  -0.66944  -0.63069
 Alpha  occ. eigenvalues --   -0.56521  -0.53428  -0.49110  -0.46549  -0.45411
 Alpha  occ. eigenvalues --   -0.44415  -0.41738  -0.41691  -0.38832  -0.38411
 Alpha  occ. eigenvalues --   -0.36680
 Alpha virt. eigenvalues --   -0.27919  -0.25661  -0.24281  -0.22943  -0.21380
 Alpha virt. eigenvalues --   -0.19857  -0.19681  -0.19347  -0.16081  -0.15647
 Alpha virt. eigenvalues --   -0.15088  -0.13484  -0.11656  -0.11228  -0.10867

  Beta  occ. eigenvalues --  -66.29360 -66.29360 -66.29359 -66.29359 -66.29208
  Beta  occ. eigenvalues --  -66.29207 -66.28115 -66.28115  -5.46349  -5.46344
  Beta  occ. eigenvalues --   -5.46175  -5.46175  -5.46173  -5.46170  -5.44872
  Beta  occ. eigenvalues --   -5.44871  -3.82304  -3.82301  -3.82143  -3.82141
  Beta  occ. eigenvalues --   -3.82116  -3.82114  -3.82112  -3.82107  -3.81897
  Beta  occ. eigenvalues --   -3.81896  -3.81867  -3.81864  -3.81860  -3.81854
  Beta  occ. eigenvalues --   -3.81741  -3.81741  -3.81740  -3.81739  -3.80630
  Beta  occ. eigenvalues --   -3.80630  -3.80625  -3.80625  -3.80536  -3.80536
  Beta  occ. eigenvalues --   -0.84392  -0.74528  -0.66674  -0.66435  -0.62711
  Beta  occ. eigenvalues --   -0.55521  -0.52771  -0.48746  -0.45491  -0.44729
  Beta  occ. eigenvalues --   -0.44185  -0.41431  -0.41241  -0.38689  -0.37354
  Beta virt. eigenvalues --   -0.31537  -0.27820  -0.25307  -0.23316  -0.22551
  Beta virt. eigenvalues --   -0.21053  -0.19396  -0.19040  -0.18968  -0.15759
  Beta virt. eigenvalues --   -0.15305  -0.14516  -0.13016  -0.11152  -0.10834

 Mulliken atomic charges:
              1
     1  Si   0.137077
     2  Si   0.137077
     3  Si   0.136916
     4  Si   0.136916
     5  Si  -0.089786
     6  Si  -0.089786
     7  Si   0.315793
     8  Si   0.315793
 Sum of Mulliken atomic charges =   1.00000

 Dipole moment (field-independent basis, Debye):
    X=              0.0000    Y=              0.0000    Z=             -0.0004  Tot=              0.0004
 Quadrupole moment (field-independent basis, Debye-Ang):
   XX=            -89.9718   YY=            -81.2839   ZZ=            -91.0908
   XY=              0.2662   XZ=              0.0000   YZ=              0.0000

  Exact polarizability: 178.021  15.093 300.250   0.000   0.000 200.943
 Approx polarizability: 522.490  41.563 943.821   0.000   0.000 633.274

                     1                      2                      3
                     A                      A                      B
 Frequencies --    28.7492               108.4246               128.8173
 Red. masses --    27.9769                27.9769                27.9769
 Frc consts  --     0.0136                 0.1938                 0.2735
 IR Inten    --     1.1697                 0.0000                 0.0000

                     4                      5                      6
                     A                      B                      B
 Frequencies --   141.2938               151.2211               227.0646
 Red. masses --    27.9769                27.9769                27.9769
 Frc consts  --     0.3291                 0.3769                 0.8499
 IR Inten    --     0.1610                 0.5441                 0.9215

                     7                      8                      9
                     A                      A                      B
 Frequencies --   238.9866               252.2737               253.3505
 Red. masses --    27.9769                27.9769                27.9769
 Frc consts  --     0.9414                 1.0490                 1.0580
 IR Inten    --     0.4118                 0.0000                 0.0000

                    10                     11                     12
                     A                      B                      A
 Frequencies --   268.1887               275.6769               296.6173
 Red. masses --    27.9769                27.9769                27.9769
 Frc consts  --     1.1856                 1.2527                 1.4503
 IR Inten    --     0.0000                 2.0848                 0.0000

                    13                     14                     15
                     B                      A                      B
 Frequencies --   299.3827               338.0173               355.3521
 Red. masses --    27.9769                27.9769                27.9769
 Frc consts  --     1.4774                 1.8833                 2.0815
 IR Inten    --     0.0000                 9.4104                17.8898

                    16                     17                     18
                     A                      B                      A
 Frequencies --   367.3658               453.7171               473.2140
 Red. masses --    27.9769                27.9769                27.9769
 Frc consts  --     2.2246                 3.3933                 3.6912
 IR Inten    --     0.0000                29.3258                 0.0000

 - Thermochemistry -
 -------------------
 Temperature   298.150 Kelvin.  Pressure   1.00000 Atm.
 Atom     1 has atomic number 14 and mass  27.97693

 Molecular mass:   223.81543 amu.
 Principal axes and moments of inertia in atomic units:
                           1         2         3
     Eigenvalues --  1393.266052909.603623085.71578
           X            0.12280   0.00000   0.99243
           Y            0.99243   0.00000  -0.12280
           Z            0.00000   1.00000   0.00000
 This molecule is an asymmetric top.
 Rotational symmetry number  2.
 Warning -- assumption of classical behavior for rotation
           may cause significant error
 Rotational temperatures (Kelvin)      0.06217     0.02977     0.02807
 Rotational constants (GHZ):           1.29533     0.62027     0.58487
 Zero-point vibrational energy      27859.3 (Joules/Mol)
                                    6.65854 (Kcal/Mol)
 Warning -- explicit consideration of  18 degrees of freedom as
           vibrations may cause significant error
 Vibrational temperatures:     41.36   156.00   185.34   203.29   217.57
          (Kelvin)            326.69   343.85   362.97   364.51   385.86
                              396.64   426.77   430.74   486.33   511.27
                              528.56   652.80   680.85

 Zero-point correction=                           0.010611 (Hartree/Particle)
 Thermal correction to Energy=                    0.022346
 Thermal correction to Enthalpy=                  0.023290
 Thermal correction to Gibbs Free Energy=        -0.028389
 Sum of electronic and zero-point Energies=          -2315.767569
 Sum of electronic and thermal Energies=             -2315.755834
 Sum of electronic and thermal Enthalpies=           -2315.754889
 Sum of electronic and thermal Free Energies=        -2315.806568

                     E (Thermal)             CV                S
                      KCal/Mol        Cal/Mol-Kelvin    Cal/Mol-Kelvin
 Total                   14.022             36.893            108.768
 Electronic               0.000              0.000              1.377
 Translational            0.889              2.981             42.120
 Rotational               0.889              2.981             29.526
 Vibrational             12.245             30.931             35.744
 Vibration     1          0.593              1.984              5.914
 Vibration     2          0.606              1.942              3.297
 Vibration     3          0.611              1.924              2.964
 Vibration     4          0.615              1.912              2.786
 Vibration     5          0.619              1.901              2.657
 Vibration     6          0.651              1.800              1.902
 Vibration     7          0.657              1.781              1.810
 Vibration     8          0.664              1.759              1.715
 Vibration     9          0.665              1.757              1.707
 Vibration    10          0.673              1.732              1.608
 Vibration    11          0.677              1.718              1.560
 Vibration    12          0.690              1.680              1.436
 Vibration    13          0.692              1.675              1.420
 Vibration    14          0.718              1.600              1.221
 Vibration    15          0.731              1.564              1.142
 Vibration    16          0.740              1.539              1.091
 Vibration    17          0.812              1.353              0.785
 Vibration    18          0.830              1.309              0.729

 Optimization completed.
    -- Stationary point found.
 Normal termination of Gaussian 09 at Tue Apr  3 14:08:28 2012.
