 Gaussian 03, Revision E.01,

 --------------------------------------
 # hf/6-311G(d) freq scfcyc=500 scf=xqc
 --------------------------------------

 -----
 si9-c
 -----
 Symbolic Z-matrix:
 Charge =  1 Multiplicity = 2

 SCF Done:  E(UHF) =  -2599.96801986     A.U. after   49 cycles
 ******    2 imaginary frequencies (negative Signs) ******
    2 imaginary frequencies ignored.
 Normal termination of Gaussian 03 at Fri Jun 17 16:57:35 2011.
 Gaussian 03:  AM64L-G03RevE.01 11-Sep-2007

 ----------------------------------------------------------------------
 # b3lyp/6-311+G(d) opt=(readfc,noeigentest,maxcycle=500) freq scfcyc=5
 00 optcyc=500 scf=xqc geom=allcheck guess=read
 ----------------------------------------------------------------------

 -----
 No Z-matrix found on checkpoint file.
 Cartesian coordinates read from the checkpoint file:
 S9L-ne-d-01.chk
 Charge =  1 Multiplicity = 2

 SCF Done:  E(UB+HF-LYP) =  -2605.28945330     A.U. after   26 cycles
 SCF Done:  E(UB+HF-LYP) =  -2605.29255625     A.U. after   19 cycles
 SCF Done:  E(UB+HF-LYP) =  -2605.29168099     A.U. after   24 cycles
 SCF Done:  E(UB+HF-LYP) =  -2605.29258528     A.U. after   25 cycles
 SCF Done:  E(UB+HF-LYP) =  -2605.29456392     A.U. after   23 cycles
 SCF Done:  E(UB+HF-LYP) =  -2605.29663245     A.U. after   20 cycles
 SCF Done:  E(UB+HF-LYP) =  -2605.29794699     A.U. after   18 cycles
 SCF Done:  E(UB+HF-LYP) =  -2605.29851551     A.U. after   20 cycles
 SCF Done:  E(UB+HF-LYP) =  -2605.29886484     A.U. after   18 cycles
 SCF Done:  E(UB+HF-LYP) =  -2605.29892388     A.U. after   19 cycles
 SCF Done:  E(UB+HF-LYP) =  -2605.29894096     A.U. after   16 cycles
 SCF Done:  E(UB+HF-LYP) =  -2605.29894268     A.U. after   14 cycles
 Optimization completed.
    -- Stationary point found.
 Normal termination of Gaussian 03 at Fri Jun 17 18:32:45 2011.

 --------------------------------------------------------------------
 #N Geom=AllCheck Guess=Read SCRF=Check GenChk UB3LYP/6-311+G(d) Freq
 --------------------------------------------------------------------

 si9-c
 -----
 Redundant internal coordinates taken from checkpoint file:
 S9L-ne-d-01.chk
 Charge =  1 Multiplicity = 2

                         Standard orientation:
 ---------------------------------------------------------------------
 Center     Atomic     Atomic              Coordinates (Angstroms)
 Number     Number      Type              X           Y           Z
 ---------------------------------------------------------------------
    1         14             0        1.257045   -0.014489   -1.286241
    2         14             0        1.727234    2.042957   -0.023349
    3         14             0        1.729468   -2.041440    0.023576
    4         14             0        1.257566    0.015307    1.285435
    5         14             0       -1.104872   -0.025982   -2.075706
    6         14             0       -0.591179    1.452710   -0.016827
    7         14             0       -0.589931   -1.453450    0.016028
    8         14             0       -1.103831    0.024721    2.076247
    9         14             0       -2.581501   -0.000334    0.000836
 ---------------------------------------------------------------------

 SCF Done:  E(UB+HF-LYP) =  -2605.29894268     A.U. after    1 cycles

 The electronic state is 2-A.
 Alpha  occ. eigenvalues --  -66.29524 -66.28664 -66.28658 -66.28509 -66.28506
 Alpha  occ. eigenvalues --  -66.28379 -66.28378 -66.27885 -66.27880  -5.46247
 Alpha  occ. eigenvalues --   -5.45483  -5.45477  -5.45411  -5.45404  -5.45234
 Alpha  occ. eigenvalues --   -5.45232  -5.44885  -5.44879  -3.82047  -3.81996
 Alpha  occ. eigenvalues --   -3.81890  -3.81407  -3.81400  -3.81340  -3.81336
 Alpha  occ. eigenvalues --   -3.81316  -3.81315  -3.81156  -3.81154  -3.81092
 Alpha  occ. eigenvalues --   -3.81088  -3.81077  -3.81071  -3.81010  -3.81004
 Alpha  occ. eigenvalues --   -3.80982  -3.80979  -3.80838  -3.80836  -3.80767
 Alpha  occ. eigenvalues --   -3.80752  -3.80647  -3.80643  -3.80579  -3.80572
 Alpha  occ. eigenvalues --   -0.84596  -0.74445  -0.70997  -0.69846  -0.58556
 Alpha  occ. eigenvalues --   -0.57790  -0.56625  -0.55466  -0.51697  -0.47180
 Alpha  occ. eigenvalues --   -0.42813  -0.42110  -0.41020  -0.40275  -0.39275
 Alpha  occ. eigenvalues --   -0.39230  -0.39021  -0.37392
 Alpha virt. eigenvalues --   -0.26639  -0.26560  -0.25764  -0.21929  -0.20235
 Alpha virt. eigenvalues --   -0.19545  -0.18269  -0.18095  -0.17579  -0.17560
 Alpha virt. eigenvalues --   -0.14823  -0.14433  -0.13113  -0.12943  -0.12814

  Beta  occ. eigenvalues --  -66.29544 -66.28602 -66.28595 -66.28434 -66.28431
  Beta  occ. eigenvalues --  -66.28350 -66.28349 -66.27852 -66.27848  -5.46266
  Beta  occ. eigenvalues --   -5.45454  -5.45448  -5.45348  -5.45342  -5.45159
  Beta  occ. eigenvalues --   -5.45157  -5.44857  -5.44851  -3.82082  -3.82020
  Beta  occ. eigenvalues --   -3.81923  -3.81329  -3.81326  -3.81206  -3.81204
  Beta  occ. eigenvalues --   -3.81183  -3.81176  -3.81077  -3.81074  -3.81047
  Beta  occ. eigenvalues --   -3.81041  -3.80974  -3.80968  -3.80938  -3.80935
  Beta  occ. eigenvalues --   -3.80895  -3.80893  -3.80801  -3.80798  -3.80763
  Beta  occ. eigenvalues --   -3.80750  -3.80566  -3.80560  -3.80500  -3.80496
  Beta  occ. eigenvalues --   -0.84230  -0.73976  -0.70351  -0.69202  -0.58307
  Beta  occ. eigenvalues --   -0.56814  -0.55758  -0.55310  -0.51302  -0.45527
  Beta  occ. eigenvalues --   -0.42743  -0.41894  -0.40567  -0.40118  -0.38988
  Beta  occ. eigenvalues --   -0.38811  -0.38808
  Beta virt. eigenvalues --   -0.32260  -0.25885  -0.25638  -0.25595  -0.21791
  Beta virt. eigenvalues --   -0.19914  -0.19490  -0.17935  -0.17910  -0.17493
  Beta virt. eigenvalues --   -0.17354  -0.14129  -0.13698  -0.12809  -0.12453

 Mulliken atomic charges:
              1
     1  Si   0.112732
     2  Si   0.077853
     3  Si   0.078113
     4  Si   0.114678
     5  Si  -0.090272
     6  Si   0.081848
     7  Si   0.081764
     8  Si  -0.090714
     9  Si   0.634000
 Sum of Mulliken charges=   1.00000

 Dipole moment (field-independent basis, Debye):
    X=    -0.1675    Y=     0.0004    Z=     0.0028  Tot=     0.1676
 Quadrupole moment (field-independent basis, Debye-Ang):
   XX=   -94.3326   YY=  -100.5605   ZZ=  -102.2409
   XY=    -0.0055   XZ=    -0.0038   YZ=    -0.0129

  Exact polarizability: 279.363   0.000 238.626  -0.002  -0.002 234.854
 Approx polarizability: 943.638  -0.028 744.327  -0.008   0.408 756.214

                     1                      2                      3
                     A                      A                      A
 Frequencies --    96.0909               100.7499               101.3768
 Red. masses --    27.9769                27.9769                27.9769
 Frc consts  --     0.1522                 0.1673                 0.1694
 IR Inten    --     4.0790                 0.0010                 1.2873

                     4                      5                      6
                     A                      A                      A
 Frequencies --   138.5585               168.3332               182.4676
 Red. masses --    27.9769                27.9769                27.9769
 Frc consts  --     0.3165                 0.4671                 0.5488
 IR Inten    --     0.5445                 1.3360                 0.6361

                     7                      8                      9
                     A                      A                      A
 Frequencies --   184.1538               198.1189               204.7460
 Red. masses --    27.9769                27.9769                27.9769
 Frc consts  --     0.5590                 0.6470                 0.6910
 IR Inten    --     0.6814                 0.0003                 0.0637

                    10                     11                     12
                     A                      A                      A
 Frequencies --   229.0984               263.8978               274.4450
 Red. masses --    27.9769                27.9769                27.9769
 Frc consts  --     0.8652                 1.1479                 1.2415
 IR Inten    --     0.1236                 4.5746                 2.8441

                    13                     14                     15
                     A                      A                      A
 Frequencies --   279.8549               298.2182               303.2683
 Red. masses --    27.9769                27.9769                27.9769
 Frc consts  --     1.2910                 1.4659                 1.5160
 IR Inten    --     0.1128                 0.0802                 1.0492

                    16                     17                     18
                     A                      A                      A
 Frequencies --   315.2670               332.9148               354.0883
 Red. masses --    27.9769                27.9769                27.9769
 Frc consts  --     1.6384                 1.8269                 2.0667
 IR Inten    --     0.0005                24.6230                 0.1003

                    19                     20                     21
                     A                      A                      A
 Frequencies --   360.1808               414.2896               439.8017
 Red. masses --    27.9769                27.9769                27.9769
 Frc consts  --     2.1384                 2.8292                 3.1883
 IR Inten    --    12.2223                17.2220                46.2102

 - Thermochemistry -
 -------------------
 Temperature   298.150 Kelvin.  Pressure   1.00000 Atm.
 Atom  1 has atomic number 14 and mass  27.97693

 Molecular mass:   251.79236 amu.
 Principal axes and moments of inertia in atomic units:
                           1         2         3
     EIGENVALUES --  2447.084523083.606633147.34787
           X            1.00000   0.00000   0.00000
           Y            0.00000   1.00000   0.00000
           Z            0.00000   0.00000   1.00000
 This molecule is an asymmetric top.
 Rotational symmetry number  1.
 Warning -- assumption of classical behavior for rotation
           may cause significant error
 Rotational temperatures (Kelvin)      0.03539     0.02809     0.02752
 Rotational constants (GHZ):           0.73751     0.58527     0.57342
 Zero-point vibrational energy      31341.7 (Joules/Mol)
                                    7.49084 (Kcal/Mol)
 Warning -- explicit consideration of  21 degrees of freedom as
           vibrations may cause significant error
 Vibrational temperatures:    138.25   144.96   145.86   199.35   242.19
          (Kelvin)            262.53   264.96   285.05   294.58   329.62
                              379.69   394.86   402.65   429.07   436.33
                              453.60   478.99   509.45   518.22   596.07
                              632.78

 Zero-point correction=                           0.011937 (Hartree/Particle)
 Thermal correction to Energy=                    0.025323
 Thermal correction to Enthalpy=                  0.026267
 Thermal correction to Gibbs Free Energy=        -0.028817
 Sum of electronic and zero-point Energies=          -2605.287005
 Sum of electronic and thermal Energies=             -2605.273620
 Sum of electronic and thermal Enthalpies=           -2605.272675
 Sum of electronic and thermal Free Energies=        -2605.327760

                     E (Thermal)             CV                S
                      KCal/Mol        Cal/Mol-Kelvin    Cal/Mol-Kelvin
 Total                   15.890             42.517            115.934
 Electronic               0.000              0.000              1.377
 Translational            0.889              2.981             42.471
 Rotational               0.889              2.981             31.541
 Vibrational             14.113             36.555             40.545
 Vibration  1             0.603              1.952              3.532
 Vibration  2             0.604              1.949              3.440
 Vibration  3             0.604              1.948              3.428
 Vibration  4             0.614              1.915              2.824
 Vibration  5             0.625              1.881              2.454
 Vibration  6             0.630              1.864              2.303
 Vibration  7             0.631              1.861              2.286
 Vibration  8             0.637              1.843              2.151
 Vibration  9             0.640              1.833              2.090
 Vibration 10             0.652              1.797              1.886
 Vibration 11             0.670              1.739              1.636
 Vibration 12             0.677              1.721              1.568
 Vibration 13             0.680              1.711              1.535
 Vibration 14             0.691              1.677              1.427
 Vibration 15             0.695              1.668              1.399
 Vibration 16             0.703              1.645              1.335
 Vibration 17             0.715              1.610              1.246
 Vibration 18             0.730              1.567              1.148
 Vibration 19             0.735              1.554              1.121
 Vibration 20             0.778              1.439              0.912
 Vibration 21             0.800              1.383              0.827

 Normal termination of Gaussian 03 at Fri Jun 17 19:06:10 2011.
