 Gaussian 03, Revision E.01,

 ----------------------------------------------------------------------
 # b3lyp/LANL2DZ opt=(calcall,noeigentest,maxcycle=500) nosym scfcyc=50
 0 scf=xqc
 ----------------------------------------------------------------------

 -----------------
 si9-an-doublet-01
 -----------------
 Symbolic Z-matrix:
 Charge = -1 Multiplicity = 2

 SCF Done:  E(UB+HF-LYP) =  -34.8106282116     A.U. after   23 cycles
 SCF Done:  E(UB+HF-LYP) =  -34.8221442921     A.U. after   21 cycles
 SCF Done:  E(UB+HF-LYP) =  -34.8323636409     A.U. after   21 cycles
 SCF Done:  E(UB+HF-LYP) =  -34.8363169151     A.U. after   21 cycles
 SCF Done:  E(UB+HF-LYP) =  -34.8384579402     A.U. after   22 cycles
 SCF Done:  E(UB+HF-LYP) =  -34.8395561222     A.U. after   23 cycles
 SCF Done:  E(UB+HF-LYP) =  -34.8400245613     A.U. after   21 cycles
 SCF Done:  E(UB+HF-LYP) =  -34.8400468584     A.U. after   19 cycles
 SCF Done:  E(UB+HF-LYP) =  -34.8400470507     A.U. after   13 cycles
 Optimization completed.
    -- Stationary point found.
 Normal termination of Gaussian 03 at Tue Nov  9 13:53:38 2010.

 ----------------------------------------------------------------------
 # b3lyp/6-31G(d) opt=(readfc,noeigentest,maxcycle=500) freq scfcyc=500
  optcyc=500 geom=allcheck guess=read scf=xqc
 ----------------------------------------------------------------------

 si9-an-doublet-01
 -----------------
 Redundant internal coordinates taken from checkpoint file:
 S9L-an-d-01.chk
 Charge = -1 Multiplicity = 2

 SCF Done:  E(UB+HF-LYP) =  -2605.43581046     A.U. after   30 cycles
 Optimization completed.
 Normal termination of Gaussian 03 at Tue Nov  9 14:20:00 2010.

 ------------------------------------------------------------------
 #N Geom=AllCheck Guess=Read SCRF=Check GenChk UB3LYP/6-31G(d) Freq
 ------------------------------------------------------------------

 si9-an-doublet-01
 -----------------
 Redundant internal coordinates taken from checkpoint file:
 S9L-an-d-01.chk
 Charge = -1 Multiplicity = 2

 SCF Done:  E(UB+HF-LYP) =  -2605.45573035     A.U. after    1 cycles
 Normal termination of Gaussian 03 at Tue Nov  9 14:27:02 2010.

 ----------------------------------------------------------------------
 # b3lyp/6-311G(d) opt=(readfc,noeigentest,maxcycle=500) freq scfcyc=50
 0 optcyc=500 geom=allcheck guess=read scf=xqc
 ----------------------------------------------------------------------

 si9-an-doublet-01
 -----------------
 Redundant internal coordinates taken from checkpoint file:
 S9L-an-d-01.chk
 Charge = -1 Multiplicity = 2

 SCF Done:  E(UB+HF-LYP) =  -2605.64673676     A.U. after   15 cycles
 SCF Done:  E(UB+HF-LYP) =  -2605.64676918     A.U. after   19 cycles
 SCF Done:  E(UB+HF-LYP) =  -2605.64677406     A.U. after   17 cycles
 SCF Done:  E(UB+HF-LYP) =  -2605.64677414     A.U. after   13 cycles
 Normal termination of Gaussian 03 at Tue Nov  9 14:39:26 2010.

 -------------------------------------------------------------------
 #N Geom=AllCheck Guess=Read SCRF=Check GenChk UB3LYP/6-311G(d) Freq
 -------------------------------------------------------------------

 si9-an-doublet-01
 -----------------
 Redundant internal coordinates taken from checkpoint file:
 S9L-an-d-01.chk
 Charge = -1 Multiplicity = 2

 SCF Done:  E(UB+HF-LYP) =  -2605.64677414     A.U. after    1 cycles
    -- Stationary point found.
 Normal termination of Gaussian 03 at Tue Nov  9 14:54:40 2010.
 Gaussian 03:  AM64L-G03RevE.01 11-Sep-2007

 ----------------------------------------------------------------------
 # b3lyp/6-311+G(d) opt=(readfc,noeigentest,maxcycle=500) freq scfcyc=5
 00 optcyc=500 scf=xqc geom=allcheck guess=read
 ----------------------------------------------------------------------

 si9-an-doublet-01
 -----------------
 Redundant internal coordinates taken from checkpoint file:
 S9L-an-d-01.chk
 Charge = -1 Multiplicity = 2

 SCF Done:  E(UB+HF-LYP) =  -2605.65204107     A.U. after   16 cycles
 SCF Done:  E(UB+HF-LYP) =  -2605.65208283     A.U. after   18 cycles
 SCF Done:  E(UB+HF-LYP) =  -2605.65208920     A.U. after   17 cycles
 Optimization completed.
    -- Stationary point found.
 Normal termination of Gaussian 03 at Tue Nov  9 15:11:11 2010.

                         Standard orientation:
 ---------------------------------------------------------------------
 Center     Atomic     Atomic              Coordinates (Angstroms)
 Number     Number      Type              X           Y           Z
 ---------------------------------------------------------------------
    1         14             0       -1.032740    1.875080   -0.979333
    2         14             0       -0.913826   -1.691782    1.403372
    3         14             0        1.260722    1.068008   -0.957713
    4         14             0        1.353089   -0.881956    0.877801
    5         14             0       -0.845016    0.719100    1.265599
    6         14             0       -0.595384   -1.377078   -0.973063
    7         14             0        1.745081   -1.189283   -1.487463
    8         14             0        1.496031    1.450044    1.381511
    9         14             0       -2.467957    0.027868   -0.530711
 ---------------------------------------------------------------------

 SCF Done:  E(UB+HF-LYP) =  -2605.65208920     A.U. after    1 cycles

 The electronic state is 2-A.
 Alpha  occ. eigenvalues --  -65.98356 -65.97967 -65.97535 -65.97381 -65.97209
 Alpha  occ. eigenvalues --  -65.97200 -65.96903 -65.96790 -65.96378  -5.15379
 Alpha  occ. eigenvalues --   -5.15016  -5.14590  -5.14351  -5.14313  -5.14184
 Alpha  occ. eigenvalues --   -5.13889  -5.13747  -5.13409  -3.51331  -3.51102
 Alpha  occ. eigenvalues --   -3.51001  -3.50996  -3.50750  -3.50621  -3.50525
 Alpha  occ. eigenvalues --   -3.50347  -3.50319  -3.50300  -3.50237  -3.50103
 Alpha  occ. eigenvalues --   -3.50067  -3.50022  -3.49999  -3.49974  -3.49928
 Alpha  occ. eigenvalues --   -3.49760  -3.49758  -3.49634  -3.49605  -3.49536
 Alpha  occ. eigenvalues --   -3.49485  -3.49415  -3.49221  -3.49194  -3.49082
 Alpha  occ. eigenvalues --   -0.52543  -0.43150  -0.41161  -0.39097  -0.29176
 Alpha  occ. eigenvalues --   -0.28401  -0.26790  -0.25251  -0.20944  -0.17296
 Alpha  occ. eigenvalues --   -0.13039  -0.12406  -0.11193  -0.10947  -0.10219
 Alpha  occ. eigenvalues --   -0.10037  -0.09222  -0.07860  -0.04999
 Alpha virt. eigenvalues --    0.03566   0.04031   0.05204   0.06617   0.07149
 Alpha virt. eigenvalues --    0.08238   0.08677   0.09562   0.10277   0.10933
 Alpha virt. eigenvalues --    0.11219   0.11985   0.12088   0.12932   0.13165

  Beta  occ. eigenvalues --  -65.98335 -65.97923 -65.97527 -65.97206 -65.97172
  Beta  occ. eigenvalues --  -65.97164 -65.96886 -65.96769 -65.96342  -5.15353
  Beta  occ. eigenvalues --   -5.14972  -5.14581  -5.14279  -5.14174  -5.14141
  Beta  occ. eigenvalues --   -5.13873  -5.13726  -5.13372  -3.51306  -3.51056
  Beta  occ. eigenvalues --   -3.50991  -3.50963  -3.50616  -3.50590  -3.50527
  Beta  occ. eigenvalues --   -3.50284  -3.50249  -3.50235  -3.50043  -3.50036
  Beta  occ. eigenvalues --   -3.49969  -3.49918  -3.49893  -3.49861  -3.49754
  Beta  occ. eigenvalues --   -3.49735  -3.49702  -3.49592  -3.49582  -3.49516
  Beta  occ. eigenvalues --   -3.49423  -3.49393  -3.49183  -3.49112  -3.49041
  Beta  occ. eigenvalues --   -0.52285  -0.42843  -0.40616  -0.38597  -0.28634
  Beta  occ. eigenvalues --   -0.28036  -0.26219  -0.24798  -0.20485  -0.16584
  Beta  occ. eigenvalues --   -0.12412  -0.12143  -0.10954  -0.10488  -0.09976
  Beta  occ. eigenvalues --   -0.09616  -0.08916  -0.07483
  Beta virt. eigenvalues --    0.00365   0.03787   0.04358   0.05628   0.06793
  Beta virt. eigenvalues --    0.07307   0.08402   0.08813   0.09692   0.10516
  Beta virt. eigenvalues --    0.11065   0.11326   0.12189   0.12261   0.13073

 Mulliken atomic charges:
              1
     1  Si  -0.665435
     2  Si  -0.454635
     3  Si   0.423672
     4  Si  -0.083219
     5  Si   0.676183
     6  Si  -0.026192
     7  Si  -0.287655
     8  Si  -0.597972
     9  Si   0.015253
 Sum of Mulliken charges=  -1.00000

 Dipole moment (field-independent basis, Debye):
    X=     0.2510    Y=    -0.0110    Z=    -0.4444  Tot=     0.5105
 Quadrupole moment (field-independent basis, Debye-Ang):
   XX=  -145.5960   YY=  -143.0201   ZZ=  -139.1123
   XY=    -0.0174   XZ=     1.8180   YZ=    -0.2821

  Exact polarizability: 344.350   1.849 327.747  -3.372   0.473 297.957
 Approx polarizability:1021.059  20.833 991.637 -15.439  -4.579 869.227

                     1                      2                      3
                     A                      A                      A
 Frequencies --    35.9377               100.8437               139.9924
 Red. masses --    27.9769                27.9769                27.9769
 Frc consts  --     0.0213                 0.1676                 0.3230
 IR Inten    --     0.5855                 0.2072                 0.6332

                     4                      5                      6
                     A                      A                      A
 Frequencies --   171.7322               194.0599               213.8193
 Red. masses --    27.9769                27.9769                27.9769
 Frc consts  --     0.4861                 0.6208                 0.7536
 IR Inten    --     0.6229                 0.6084                 2.5997

                     7                      8                      9
                     A                      A                      A
 Frequencies --   220.3421               232.2357               242.4340
 Red. masses --    27.9769                27.9769                27.9769
 Frc consts  --     0.8003                 0.8890                 0.9688
 IR Inten    --     0.2668                 0.0782                 1.3215

                    10                     11                     12
                     A                      A                      A
 Frequencies --   261.9055               273.9327               287.7125
 Red. masses --    27.9769                27.9769                27.9769
 Frc consts  --     1.1307                 1.2369                 1.3645
 IR Inten    --     2.0602                 0.7188                 0.1565

                    13                     14                     15
                     A                      A                      A
 Frequencies --   292.2812               322.4208               337.7941
 Red. masses --    27.9769                27.9769                27.9769
 Frc consts  --     1.4082                 1.7135                 1.8809
 IR Inten    --     0.2465                 0.2971                 0.5840

                    16                     17                     18
                     A                      A                      A
 Frequencies --   348.6640               370.5019               386.7233
 Red. masses --    27.9769                27.9769                27.9769
 Frc consts  --     2.0038                 2.2627                 2.4652
 IR Inten    --     0.0636                 0.0815                 0.5377

                    19                     20                     21
                     A                      A                      A
 Frequencies --   395.2460               437.9360               447.8324
 Red. masses --    27.9769                27.9769                27.9769
 Frc consts  --     2.5750                 3.1613                 3.3058
 IR Inten    --     0.2351                 0.1284                 0.1032

 - Thermochemistry -
 -------------------
 Temperature   298.150 Kelvin.  Pressure   1.00000 Atm.
 Atom  1 has atomic number 14 and mass  27.97693

 Molecular mass:   251.79236 amu.
 Principal axes and moments of inertia in atomic units:
                           1         2         3
     EIGENVALUES --  2577.156022930.516053196.28262
           X            1.00000   0.00000   0.00000
           Y            0.00000   1.00000   0.00000
           Z            0.00000   0.00000   1.00000
 This molecule is an asymmetric top.
 Rotational symmetry number  1.
 Warning -- assumption of classical behavior for rotation
           may cause significant error
 Rotational temperatures (Kelvin)      0.03361     0.02956     0.02710
 Rotational constants (GHZ):           0.70028     0.61584     0.56464
 Zero-point vibrational energy      34179.4 (Joules/Mol)
                                    8.16907 (Kcal/Mol)
 Warning -- explicit consideration of  21 degrees of freedom as
           vibrations may cause significant error
 Vibrational temperatures:     51.71   145.09   201.42   247.08   279.21
          (Kelvin)            307.64   317.02   334.14   348.81   376.82
                              394.13   413.95   420.53   463.89   486.01
                              501.65   533.07   556.41   568.67   630.09
                              644.33

 Zero-point correction=                           0.013018 (Hartree/Particle)
 Thermal correction to Energy=                    0.025800
 Thermal correction to Enthalpy=                  0.026744
 Thermal correction to Gibbs Free Energy=        -0.027376
 Sum of electronic and zero-point Energies=          -2605.639071
 Sum of electronic and thermal Energies=             -2605.626290
 Sum of electronic and thermal Enthalpies=           -2605.625345
 Sum of electronic and thermal Free Energies=        -2605.679465

                     E (Thermal)             CV                S
                      KCal/Mol        Cal/Mol-Kelvin    Cal/Mol-Kelvin
 Total                   16.189             41.650            113.904
 Electronic               0.000              0.000              1.377
 Translational            0.889              2.981             42.471
 Rotational               0.889              2.981             31.557
 Vibrational             14.412             35.688             38.499
 Vibration  1             0.594              1.982              5.471
 Vibration  2             0.604              1.948              3.438
 Vibration  3             0.615              1.913              2.804
 Vibration  4             0.626              1.877              2.416
 Vibration  5             0.635              1.848              2.189
 Vibration  6             0.644              1.820              2.011
 Vibration  7             0.647              1.810              1.956
 Vibration  8             0.653              1.792              1.862
 Vibration  9             0.659              1.775              1.785
 Vibration 10             0.669              1.743              1.649
 Vibration 11             0.676              1.721              1.571
 Vibration 12             0.685              1.697              1.487
 Vibration 13             0.688              1.688              1.461
 Vibration 14             0.707              1.631              1.298
 Vibration 15             0.718              1.600              1.223
 Vibration 16             0.726              1.578              1.172
 Vibration 17             0.743              1.533              1.078
 Vibration 18             0.755              1.499              1.013
 Vibration 19             0.762              1.480              0.980
 Vibration 20             0.798              1.387              0.833
 Vibration 21             0.807              1.366              0.802

 Normal termination of Gaussian 03 at Tue Nov  9 15:37:02 2010.
